ITEM: TIMESTEP
10000
ITEM: NUMBER OF ATOMS
60
ITEM: BOX BOUNDS ss ss pp
-1.4803490598000003e-02 1.4801980349059801e+02
-1.1812892478400000e-02 1.1811681289247841e+02
0.0000000000000000e+00 1.1960000000000001e+01
ITEM: ATOMS id x y z
934 14.0205 51.204 3.09751
936 17.0532 51.0803 3.10768
938 19.9869 51.1387 3.00841
433 12.8602 52.4696 1.45767
435 15.6227 52.431 1.50921
961 17.1208 53.6072 2.98783
459 14.3067 54.0649 0.443227
461 16.9462 54.0944 0.182789
959 14.2972 53.7779 3.06972
437 18.4777 52.4947 1.37546
963 19.7988 53.8048 2.92074
463 19.8592 54.0993 0.0635784
1983 14.243 65.9351 0.31506
2483 14.0446 65.9668 2.99965
1985 17.254 65.9939 0.0434465
2485 18.9073 64.6238 1.5438
2487 19.9035 65.6286 3.24645
1982 12.8461 67.4821 1.59394
1984 15.7035 67.3033 1.73047
1986 18.5271 67.1112 1.66071
1434 14.1902 50.7444 5.78643
1436 17.0911 50.7991 5.92286
1438 19.8814 50.5872 6.07932
933 12.7974 52.5914 4.7204
1433 12.8693 52.1529 7.51081
935 15.674 52.468 4.59054
1435 15.6398 52.2203 7.4031
1459 14.3059 53.9801 6.33534
1461 16.9858 53.9769 6.1483
937 18.5692 52.3553 4.70989
1437 18.3672 52.3184 7.5609
1463 19.8524 54.0382 6.06766
2985 17.054 65.9848 6.23156
2987 19.8624 65.7628 6.26295
2482 12.8111 67.1086 4.84096
2982 12.9385 67.4436 7.96275
2484 15.6357 67.2032 4.46544
2983 14.3175 66.0262 6.56449
2984 15.7801 67.3566 7.94414
2486 18.4427 67.0903 4.49564
2986 18.4412 67.3466 7.89341
434 14.2656 50.9169 11.8832
1479 14.3589 51.0647 9.25721
436 17.1146 51.0033 11.8925
1477 16.8698 51.1063 9.32912
1462 19.8972 50.9576 9.24248
438 19.9814 50.9709 11.7366
1480 12.8877 52.7263 10.782
977 14.2678 53.5748 8.80008
976 16.8855 53.7867 8.8134
1478 15.5701 52.7623 10.653
962 19.7989 53.8615 8.7024
1476 18.3886 52.7464 10.5635
3483 14.1896 65.8898 9.47084
3485 17.0968 65.7768 9.31475
3487 19.8772 65.589 9.13941
1987 19.9391 65.7385 11.852
3482 12.8861 67.4774 10.7658
3484 15.7123 67.3681 10.7518
3486 18.4823 67.4253 10.6947
