ITEM: TIMESTEP
10000
ITEM: NUMBER OF ATOMS
145
ITEM: BOX BOUNDS ss ss pp
-1.4803490598000003e-02 1.4801980349059801e+02
-1.1812892478400000e-02 1.1811681289247841e+02
0.0000000000000000e+00 1.1960000000000001e+01
ITEM: ATOMS id x y z
8259 94.8572 50.6388 0.233939
8759 94.7402 50.5645 2.76534
8761 97.7273 50.6771 2.81549
8261 97.7424 50.7575 0.175605
8763 100.448 50.592 2.78377
8263 100.459 50.7752 0.221438
8260 96.2976 52.3226 1.50824
8284 94.8478 53.937 0.139749
8285 96.3053 55.3523 1.64117
8784 94.8657 53.7254 3.20842
8262 99.165 52.4565 1.59108
8286 97.8306 53.7938 0.0686118
8287 99.1888 55.283 1.74651
8786 97.7751 53.7376 3.26925
8264 101.866 52.3181 1.53635
8289 102.09 55.2221 1.69969
8288 100.544 53.9668 0.12214
8788 100.534 53.7737 3.21838
8309 94.9614 56.4964 0.00399745
8310 96.3669 58.2813 1.26391
8809 94.8724 57.0306 3.01083
8312 99.1816 58.1231 1.55055
8811 97.6605 57.0195 3.11609
8314 102.049 58.2345 1.38092
8313 100.527 56.5424 0.0891276
8813 100.719 56.7994 3.11212
9835 96.3673 61.0848 1.57095
10334 94.9381 59.4689 3.06828
9837 99.1771 61.1466 1.52632
10336 97.7021 59.6299 3.0328
9839 102.073 61.0891 1.40701
10338 100.576 59.5167 2.96445
9859 94.9452 62.9774 0.310408
10359 94.92 62.8854 2.95065
9860 96.3363 64.5176 1.76826
10384 94.8731 65.9161 3.371
10361 97.7497 62.7965 2.9501
9861 97.7011 62.9763 0.395873
9862 99.1368 64.5994 1.5474
9863 100.584 62.909 0.168279
10363 100.503 62.7695 2.85129
9864 102.034 64.5775 1.66542
10388 100.688 65.9836 3.26823
9884 94.9694 66.0882 0.297436
9886 97.7015 66.0419 0.106781
9885 96.4168 67.4481 1.79071
9887 99.2586 67.4061 1.83171
10386 97.7611 66.0496 3.35187
9888 100.645 66.2144 0.108833
9889 102.098 67.3509 1.7561
9259 94.7662 50.5155 5.94248
8760 96.2745 51.9595 4.41359
9260 96.296 52.0937 7.34573
9261 97.7729 50.5731 5.97371
8762 99.2069 52.035 4.49768
8764 101.983 51.9356 4.45837
9263 100.633 50.4257 6.04408
9284 94.8764 53.6654 5.71299
8785 96.3413 55.4515 4.54588
9285 96.2795 55.1065 7.38745
9286 97.649 53.603 5.87499
8787 99.1899 55.469 4.63853
9262 99.159 52.1322 7.30392
9287 99.1203 55.0098 7.45414
9288 100.458 53.5985 5.90703
8789 102.046 55.3941 4.61423
9264 102.01 52.1135 7.28835
9289 102.014 54.9655 7.35902
8810 96.2707 58.358 4.871
9309 94.8254 56.908 6.29746
9310 96.3199 58.4902 7.65368
8812 99.116 58.3735 4.70928
9311 97.7458 56.8389 6.25867
9312 99.1008 58.461 7.54605
8814 102.102 58.3557 4.73619
9313 100.556 56.8937 6.16359
9314 101.96 58.4314 7.5676
10335 96.3237 61.3826 4.43565
10834 95.0231 60.0349 6.1549
10835 96.3397 61.384 7.80228
10337 99.2304 61.2377 4.35962
10836 97.7448 59.9902 6.10164
10837 99.1322 61.3935 7.70241
10339 102.018 61.1751 4.23101
10838 100.665 60.0412 6.06908
10839 102.013 61.3476 7.72326
10863 100.622 62.4837 5.98594
10360 96.2955 64.1845 4.52298
10884 94.9154 65.9666 5.88875
10859 94.8937 62.6269 6.15382
10860 96.3559 64.301 7.3789
10886 97.9293 65.796 5.90603
10362 99.176 64.2254 4.51409
10861 97.7661 62.7129 5.9909
10862 99.2002 64.3233 7.3297
10364 102.057 64.04 4.46295
10888 100.666 65.815 5.83607
10864 102.098 64.254 7.30559
10385 96.3426 67.7226 4.69163
10387 99.2851 67.6838 4.6185
10885 96.4108 67.1535 7.49018
10887 99.2796 67.2983 7.47647
10389 102.039 67.6079 4.66771
10889 102.086 67.2551 7.53679
9295 94.8354 50.9147 9.16524
9245 97.6926 50.882 8.98025
9195 100.694 50.8397 8.96984
8695 94.8781 53.4203 8.91453
9270 96.3194 52.2378 10.7313
8645 97.7513 53.5293 9.01741
9220 99.1584 52.1935 10.5959
8670 96.4053 55.105 10.3143
8620 99.3144 55.1817 10.2762
8595 100.645 53.4905 8.88794
9170 101.938 52.2742 10.6931
8570 102.067 55.1851 10.3998
8095 94.8928 56.7579 8.75635
8070 96.2902 58.0665 10.4937
8045 97.6795 56.673 8.74289
8311 97.9285 56.4672 11.8929
8020 99.1729 58.0054 10.4672
7995 100.61 56.7091 8.73867
7970 101.938 58.09 10.4963
9834 94.9536 59.6924 11.7567
11334 94.9248 59.8091 9.2565
11335 96.2603 61.5912 10.6455
11336 97.7179 59.7681 9.24805
9836 97.8614 59.6818 11.7363
11337 99.0874 61.5515 10.573
9838 100.532 59.8191 11.8629
11338 100.525 59.8013 9.26624
11339 101.985 61.4423 10.5973
11359 95.0003 63.1372 9.08301
11384 94.958 65.6008 9.12986
11360 96.2727 64.4494 10.8372
11361 97.7766 63.0772 9.06616
11386 97.777 65.707 8.9961
11362 99.1587 64.4434 10.7033
11363 100.581 63.0805 9.079
11388 100.686 65.7365 8.99156
11364 101.958 64.3473 10.7489
11383 93.6001 67.2857 10.3592
11385 96.3769 67.3704 10.337
11387 99.2274 67.2821 10.3465
11389 102.125 67.3898 10.3073
