ITEM: TIMESTEP
0
ITEM: NUMBER OF ATOMS
144
ITEM: BOX BOUNDS ss ss pp
-1.4803490598000003e-02 1.4801980349059801e+02
-1.1812892478400000e-02 1.1811681289247841e+02
0.0000000000000000e+00 1.1960000000000001e+01
ITEM: ATOMS id x y z
5771 103.589 50.4512 2.85394
5773 106.558 50.414 2.89577
1772 105.068 51.8635 1.33984
5775 109.333 50.4372 2.83067
1774 107.887 51.9267 1.3696
1776 110.791 52.0068 1.28207
5871 103.643 53.5327 2.65749
1871 103.55 53.7154 0.152288
5873 106.372 53.7252 2.68538
1873 106.388 53.7112 0.161739
1872 105.005 55.5039 1.48865
1875 109.247 53.6965 0.101558
5875 109.131 53.7551 2.66028
1874 107.813 55.4249 1.53945
1876 110.706 55.4842 1.51783
1972 104.94 58.4151 1.54196
5971 103.416 56.8373 3.15961
5973 106.344 56.8988 3.14309
1974 107.765 58.301 1.64733
5975 109.198 56.9168 3.10417
1975 109.29 56.9448 0.0414865
1976 110.813 58.3841 1.61522
6071 103.525 60.0805 2.86387
2072 105.001 61.3435 1.23667
6073 106.376 60.0063 2.99345
2074 107.803 61.1572 1.24988
6075 109.238 60.0645 2.89506
2076 110.74 61.2863 1.30225
6171 103.424 62.6327 2.96392
6173 106.384 62.6954 2.83024
2172 104.986 64.163 1.36011
6271 103.517 65.854 2.68742
6273 106.445 65.9373 2.74792
6175 109.303 62.6688 2.91469
2174 107.783 64.1113 1.41619
6275 109.261 65.8024 2.668
2275 109.258 65.924 0.137366
2176 110.752 64.1495 1.33448
2271 103.409 66.0113 0.0728816
2273 106.408 66.0581 0.167564
2272 105.068 67.7094 1.45875
2274 107.884 67.5407 1.47206
2276 110.674 67.6695 1.41762
9771 103.638 50.8458 6.07306
9773 106.631 50.9806 5.97675
9775 109.418 50.9924 5.94427
9871 103.591 53.5434 5.929
5772 105.05 52.1724 4.21921
9873 106.444 53.5056 5.83046
5872 104.99 55.0243 4.36263
9772 105.073 52.1947 7.51892
9872 105.024 55.2209 7.17912
5774 107.928 52.1717 4.13412
9875 109.367 53.4797 5.76689
5874 107.807 55.1399 4.3078
9774 107.81 52.4344 7.6541
9874 107.881 55.1848 7.22682
5776 110.733 52.2173 4.11908
5876 110.678 55.0552 4.38913
9776 110.768 52.2167 7.60322
9876 110.66 55.181 7.26023
9971 103.509 56.6143 5.69297
5972 104.963 58.4268 4.54613
9973 106.385 56.7967 5.66805
9972 105.01 58.0443 7.40778
9975 109.263 56.8249 5.7306
5974 107.879 58.5612 4.46481
9974 107.863 58.1566 7.43223
5976 110.699 58.4824 4.41722
9976 110.651 57.9963 7.32962
6072 104.928 61.3865 4.51323
10071 103.527 59.9136 6.15437
10073 106.312 59.875 6.07928
10072 104.934 61.514 7.42934
6074 107.791 61.3864 4.59845
10075 109.21 59.8351 6.21737
10074 107.883 61.5551 7.4728
6076 110.723 61.4167 4.66521
10076 110.749 61.5185 7.53544
10171 103.553 63.104 5.98163
10173 106.305 63.0162 5.97677
10271 103.538 65.7152 5.95102
6172 104.961 64.4552 4.22351
10273 106.447 65.6536 5.81596
10172 104.929 64.3648 7.68774
10175 109.218 63.1 5.91756
6174 107.866 64.2526 4.26469
10275 109.282 65.6518 5.79442
10174 107.757 64.4718 7.62928
6176 110.708 64.3083 4.15467
10176 110.645 64.4799 7.67152
6272 104.991 67.2565 4.30911
10272 104.939 67.3526 7.16315
6274 107.817 67.1901 4.25616
10274 107.824 67.4118 7.16069
6276 110.694 67.1858 4.35097
10276 110.751 67.2491 7.11013
1771 103.694 50.5782 11.4732
13771 103.544 50.7226 9.03578
1773 106.52 50.6087 11.6104
13773 106.48 50.7587 9.12275
1775 109.369 50.5322 11.6394
13775 109.215 50.7945 9.17441
13871 103.642 53.9496 8.9669
13873 106.455 54.1052 9.06035
13772 105.061 52.401 10.4151
13872 104.939 55.3498 10.5615
13875 109.351 53.9063 9.02059
13774 107.867 52.3876 10.4628
13874 107.912 55.2693 10.661
13776 110.763 52.3983 10.4272
13876 110.717 55.2475 10.5906
13971 103.564 56.4429 8.86019
13973 106.412 56.5199 8.9416
1971 103.509 57.0631 11.9191
1973 106.443 56.9902 11.8831
13972 105.081 58.3242 10.2401
13975 109.219 56.4898 8.79776
13974 107.995 58.1187 10.2638
13976 110.76 58.1379 10.1415
14071 103.557 59.7425 8.66758
14073 106.528 59.8227 8.74281
2071 103.499 59.6756 11.7981
14072 104.948 61.2204 10.2866
2073 106.425 59.6425 11.8112
14075 109.373 59.8143 8.69382
2075 109.402 59.5565 11.771
14074 107.934 61.1308 10.3648
14076 110.763 61.1686 10.2744
14171 103.485 62.931 9.14594
2171 103.369 62.8905 11.5709
14173 106.334 62.8548 9.07996
2173 106.395 62.7196 11.7455
14172 104.981 64.5088 10.467
14175 109.313 62.8347 9.16095
2175 109.248 62.6871 11.7924
14174 107.824 64.5494 10.5212
14176 110.679 64.589 10.4663
14271 103.565 66.0717 8.83971
14273 106.394 66.2035 8.84701
14272 104.954 67.4766 10.5544
14275 109.308 66.1395 8.93176
14274 107.812 67.4598 10.4626
14276 110.557 67.4748 10.5931
