ITEM: TIMESTEP
0
ITEM: NUMBER OF ATOMS
165
ITEM: BOX BOUNDS ss ss pp
-1.4803490598000003e-02 1.4801980349059801e+02
-1.1812892478400000e-02 1.1811681289247841e+02
0.0000000000000000e+00 1.1960000000000001e+01
ITEM: ATOMS id x y z
5777 112.032 50.5341 2.8971
5779 115.134 50.4937 2.81218
1778 113.647 51.9154 1.33106
1780 116.517 51.8882 1.30899
5781 117.99 50.4733 2.82738
1782 119.373 52.0907 1.43012
5783 120.795 50.4467 2.73421
5877 112.173 53.7138 2.59047
1877 112.142 53.8206 0.0226107
5879 115.056 53.6132 2.72559
1879 115.178 53.6475 0.147254
1878 113.691 55.3752 1.46733
1880 116.425 55.4333 1.4759
5881 117.776 53.7419 2.73409
1881 117.972 53.6628 0.0405255
1882 119.274 55.3973 1.47921
5883 120.802 53.7337 2.67159
1883 120.653 53.8948 0.0807867
5977 112.141 56.736 3.13602
1978 113.613 58.2793 1.5462
1980 116.335 58.3156 1.61375
5979 114.986 56.8117 3.17218
1982 119.164 58.2324 1.62474
5981 117.706 56.7607 3.18936
5983 120.717 56.8732 3.13015
6077 112.241 60.049 2.99426
2078 113.572 61.1729 1.21167
6177 112.093 62.436 2.88596
2080 116.415 61.1926 1.32154
6079 114.94 60.0083 2.93349
2082 119.291 61.2452 1.26732
6081 117.844 59.9122 3.00035
6181 117.928 62.5154 2.78705
6083 120.669 59.8488 2.95083
6183 120.732 62.5023 2.87933
6277 112.082 65.8604 2.65207
2277 112.002 65.9415 0.107145
2178 113.55 64.0673 1.36264
6179 114.951 62.6046 2.94523
2180 116.419 64.0996 1.36218
6279 114.872 65.7364 2.83778
2279 114.997 65.8846 0.254067
2182 119.271 64.1767 1.40832
2281 117.791 65.8942 0.0825283
6281 117.754 65.715 2.65921
6283 120.673 65.8326 2.71159
2283 120.731 65.8311 0.0443441
2278 113.576 67.5655 1.45894
2280 116.456 67.5642 1.552
2282 119.269 67.4192 1.47788
9777 112.133 51.04 5.91356
9779 115.078 50.9304 5.84247
9781 117.936 50.8938 5.85201
9877 112.058 53.4868 5.80521
5778 113.531 52.1798 4.07552
9878 113.582 55.1716 7.2452
9879 115.022 53.407 5.75295
5780 116.513 52.1617 4.16219
5878 113.651 55.0405 4.30523
5880 116.368 55.1199 4.33031
9778 113.661 52.28 7.60001
9780 116.509 52.2619 7.45953
9880 116.519 55.0918 7.15393
9881 117.889 53.5166 5.7529
5782 119.318 52.1954 4.18367
5882 119.259 55.0677 4.34495
9782 119.424 52.2881 7.51768
9882 119.275 55.208 7.13321
9883 120.701 53.5699 5.7882
9977 112.144 56.658 5.70487
5978 113.496 58.4534 4.44699
9978 113.51 58.0886 7.28113
9979 115.059 56.6191 5.68649
5980 116.366 58.4929 4.41249
9980 116.388 58.0122 7.39206
9981 117.824 56.7437 5.64198
5982 119.326 58.4341 4.52712
9982 119.264 58.0929 7.3675
9983 120.709 56.865 5.75505
6078 113.506 61.3557 4.66248
10077 112.005 59.8608 6.19846
6080 116.407 61.4008 4.5686
10079 114.966 59.7762 6.03711
10078 113.597 61.5375 7.35219
10080 116.48 61.4724 7.39144
6082 119.322 61.3437 4.53298
10081 117.87 59.7925 6.02092
10082 119.2 61.5578 7.4743
10083 120.762 59.7911 6.14624
10177 112.174 63.1197 5.99109
10277 112.175 65.6112 5.75261
6178 113.521 64.3118 4.20901
10178 113.454 64.3825 7.64045
10179 114.957 63.0382 6.01195
6180 116.385 64.199 4.19542
10279 114.975 65.5877 5.92015
10180 116.426 64.4483 7.58899
6182 119.278 64.2516 4.19695
10281 117.917 65.6256 5.72293
10181 117.809 63.0544 5.97725
10182 119.275 64.3774 7.56787
10283 120.699 65.6113 5.82129
10183 120.728 62.9869 5.90504
10278 113.549 67.2491 7.25073
6278 113.638 67.2023 4.32644
6280 116.519 67.0884 4.32646
10280 116.469 67.2747 7.15388
6282 119.367 67.0931 4.32317
10282 119.322 67.1811 7.16744
13777 112.237 50.778 9.19957
1777 112.305 50.5506 11.6122
13779 115.217 50.7157 9.12538
1779 115.134 50.518 11.6946
13781 117.829 50.7662 9.16056
1781 117.892 50.6797 11.7162
13877 112.215 53.8752 8.98194
13878 113.544 55.2296 10.6287
13879 115.015 53.8452 9.04554
13778 113.65 52.3766 10.4726
13780 116.48 52.273 10.403
13880 116.422 55.2019 10.5888
13881 118.008 53.8438 8.9199
13782 119.325 52.3776 10.3815
13882 119.261 55.3714 10.5337
13883 120.587 53.9833 8.99239
1977 112.166 56.9149 11.8078
13977 112.204 56.4451 8.91288
13978 113.527 58.2706 10.1471
13979 115.025 56.5771 8.91627
1979 115.072 56.8598 11.9494
13980 116.302 58.1884 10.3212
13981 117.86 56.4407 8.90363
1981 117.74 56.8543 11.9096
13982 119.106 58.1685 10.2189
13983 120.592 56.5564 8.79565
1983 120.495 56.8889 11.9032
14077 112.217 59.9125 8.64006
2077 112.116 59.4528 11.7653
14078 113.544 61.1304 10.3481
14079 114.969 59.7148 8.71921
2079 114.928 59.6685 11.8156
14080 116.42 61.1712 10.3156
14081 117.695 59.6331 8.71889
2081 117.776 59.57 11.8367
14082 119.171 61.0638 10.3609
14083 120.558 59.7295 8.62615
2083 120.571 59.3913 11.8441
14177 112.141 62.8023 9.11597
2177 112.053 62.805 11.725
14178 113.561 64.5005 10.459
14179 115 62.8878 9.02185
2179 114.983 62.7801 11.658
14180 116.416 64.5861 10.4755
2181 117.802 62.8141 11.662
14181 117.769 62.8254 9.16739
14182 119.257 64.5093 10.4077
2183 120.633 62.7569 11.7917
14183 120.578 62.7005 9.11917
14277 112.124 66.0115 9.10652
14278 113.541 67.3747 10.667
14279 114.983 66.0533 8.84626
14280 116.385 67.3927 10.6542
14281 117.883 66.0898 8.96106
14282 119.284 67.2563 10.6217
14283 120.613 66.0371 8.94921
