ITEM: TIMESTEP
0
ITEM: NUMBER OF ATOMS
147
ITEM: BOX BOUNDS ss ss pp
-1.4803490598000003e-02 1.4801980349059801e+02
-1.1812892478400000e-02 1.1811681289247841e+02
0.0000000000000000e+00 1.1960000000000001e+01
ITEM: ATOMS id x y z
5785 123.697 50.6363 2.84681
5787 126.571 50.8067 2.84695
5789 129.282 50.704 2.73675
1784 122.219 52.1453 1.2415
5885 123.585 53.8889 2.5977
1884 122.112 55.4921 1.40588
1786 125.056 52.1231 1.31067
1886 124.972 55.5586 1.39787
5887 126.371 53.8043 2.62314
1788 128.052 52.2479 1.25654
5889 129.472 53.9661 2.61106
1888 127.879 55.4198 1.33757
1984 122.123 58.3355 1.51987
5985 123.53 56.771 3.0014
1986 125.006 58.3417 1.4948
5987 126.515 56.8424 3.00976
1988 127.958 58.3239 1.49487
5989 129.386 56.6981 2.94814
2084 122.096 61.2357 1.24801
6085 123.563 60.0296 2.9573
2086 124.883 61.1697 1.22182
6087 126.422 59.9028 2.85528
2088 127.901 61.1902 1.25462
6089 129.342 59.9206 2.89909
2184 122.115 64.1666 1.28942
6185 123.47 62.6312 2.8495
6285 123.692 65.7096 2.73401
2285 123.585 65.7802 0.165389
2186 124.986 64.1006 1.31278
6187 126.477 62.6753 2.78617
6287 126.437 65.683 2.8734
2287 126.474 65.7424 0.0866747
2188 127.904 64.075 1.38321
6189 129.38 62.6716 2.90054
6289 129.339 65.5959 2.59038
2284 122.191 67.4805 1.53383
2286 124.978 67.3644 1.51294
2288 127.964 67.2424 1.42114
9783 120.886 51.0084 5.86868
9785 123.662 50.9846 5.82161
9787 126.482 51.1602 5.77841
9789 129.353 51.133 5.72695
5784 122.195 52.2305 4.1442
9885 123.656 53.6333 5.72253
5884 122.107 55.1168 4.3997
9784 122.21 52.4702 7.54785
9884 122.149 55.2049 7.37667
5786 125.068 52.438 4.12084
9887 126.452 53.7788 5.67861
5886 124.964 55.3076 4.25179
9786 125.029 52.4027 7.47007
9886 125.06 55.2685 7.23014
5788 127.969 52.3968 4.10244
9889 129.384 53.7684 5.7279
5888 127.908 55.2218 4.24684
9788 127.934 52.5408 7.27756
9888 127.939 55.3646 7.15539
5984 122.156 58.461 4.47081
9985 123.57 56.8017 5.69704
9984 122.192 58.2028 7.3742
5986 125.069 58.3325 4.32456
9987 126.499 56.817 5.61916
9986 125.052 58.1548 7.39563
5988 127.927 58.356 4.35596
9989 129.432 56.8452 5.69833
9988 127.893 58.3222 7.19919
6084 122.204 61.3258 4.58946
10084 122.062 61.4159 7.459
10085 123.613 59.8502 6.07845
6086 125.027 61.3577 4.42253
10086 124.98 61.4388 7.31995
10087 126.454 59.7565 5.88703
6088 127.855 61.2774 4.50045
10088 127.927 61.335 7.33843
10089 129.37 59.8713 5.83757
6184 122.204 64.2222 4.14973
10185 123.607 63.004 5.91492
10285 123.521 65.6241 5.84623
10184 122.109 64.2996 7.59184
6186 125.118 64.1002 4.2354
10187 126.475 62.9051 5.95691
10287 126.521 65.5353 5.87682
10186 125.064 64.2551 7.54914
6188 127.903 64.1847 4.20126
10289 129.369 65.5285 5.8794
10189 129.35 62.9144 5.80977
10188 127.995 64.2768 7.49387
6284 122.249 67.102 4.38451
10284 122.144 67.1738 7.15126
6286 125.056 67.067 4.39039
10286 125.052 67.1694 7.22131
6288 127.943 67.0336 4.25655
10288 127.885 67.2517 7.17466
13785 123.671 50.9297 9.04309
13783 120.939 50.8132 9.11217
1783 120.848 50.6999 11.783
1785 123.758 50.8653 11.5553
13787 126.516 50.9366 8.78902
1787 126.539 50.9686 11.4783
13789 129.47 51.0609 8.82987
1789 129.41 50.9695 11.6552
1885 123.664 53.8628 11.877
13885 123.685 54.0104 8.91244
13784 122.116 52.506 10.3679
13884 122.092 55.3799 10.4354
13887 126.528 54.0971 8.86337
13786 125.078 52.5989 10.2851
13886 125.065 55.3958 10.4237
1887 126.466 53.7033 11.9577
13889 129.415 54.0372 8.80114
13788 127.976 52.5454 10.2413
1889 129.423 53.8504 11.8291
13888 128.025 55.3593 10.4049
13985 123.464 56.5535 8.88016
13984 121.924 58.2116 10.1425
1985 123.503 56.9958 11.7928
13987 126.454 56.6995 8.84935
13986 124.968 58.3246 10.2399
1987 126.479 57.0039 11.9369
13989 129.388 56.7929 8.80178
1989 129.363 57.0212 11.9044
13988 127.856 58.2402 10.2077
14085 123.628 59.8735 8.67753
14084 122.03 61.054 10.3709
2085 123.404 59.647 11.7599
14087 126.373 59.8355 8.64195
14086 125.003 61.231 10.2763
2087 126.439 59.7102 11.6948
14089 129.391 59.7141 8.80021
2089 129.395 59.6802 11.8106
14088 127.861 61.2249 10.3078
14285 123.545 65.8939 8.87613
14185 123.508 62.7634 8.98533
2185 123.471 62.7351 11.6228
14184 122.115 64.4541 10.4098
14287 126.473 65.8678 8.88819
14187 126.482 62.8299 9.04607
2187 126.456 62.7272 11.775
14186 125 64.3583 10.3994
2289 129.359 65.6568 11.9517
14189 129.35 62.7839 9.03951
14289 129.457 65.8081 8.85658
2189 129.369 62.6692 11.7045
14188 127.91 64.3189 10.3677
14284 122.121 67.3611 10.653
14286 125.097 67.1951 10.5171
14288 127.977 67.191 10.4416
