ITEM: TIMESTEP
0
ITEM: NUMBER OF ATOMS
144
ITEM: BOX BOUNDS ss ss pp
-1.4803490598000003e-02 1.4801980349059801e+02
-1.1812892478400000e-02 1.1811681289247841e+02
0.0000000000000000e+00 1.1960000000000001e+01
ITEM: ATOMS id x y z
5791 132.204 50.8044 2.78768
5793 135.024 50.955 2.84821
5795 138.093 51.1296 2.7745
1790 130.88 52.3162 1.22672
5891 132.273 53.9082 2.65465
1792 133.729 52.4045 1.18037
1890 130.833 55.5076 1.28903
1892 133.648 55.4536 1.37337
1794 136.636 52.3849 1.24816
5893 135.051 53.9765 2.63561
1894 136.658 55.4938 1.34697
5895 138.014 53.8931 2.77262
1990 130.814 58.4261 1.51988
5991 132.225 56.8747 2.85272
1992 133.773 58.3734 1.35159
5993 135.093 56.8416 2.95186
1994 136.518 58.4336 1.41613
5995 138.082 56.9619 2.785
2090 130.774 61.25 1.35324
2092 133.69 61.2814 1.20642
6091 132.252 59.9593 2.74213
6093 135.093 59.9033 2.85079
2094 136.584 61.3112 1.34672
6095 137.958 59.8879 2.82814
6191 132.324 62.6271 2.83834
2190 130.82 64.1269 1.35588
6291 132.303 65.5888 2.7798
2192 133.7 64.2351 1.30779
6193 135.084 62.7602 2.78182
2194 136.609 64.2373 1.33012
6293 135.202 65.7192 2.78998
6195 138.042 62.7104 2.78639
6295 138.196 65.6487 2.71747
2290 130.837 67.145 1.36786
2292 133.705 67.1393 1.42237
2294 136.651 67.1781 1.23774
9791 132.23 51.0783 5.73297
9793 135.135 51.0716 5.70941
9795 137.987 51.1362 5.70548
5790 130.761 52.3769 4.07613
9891 132.261 53.7537 5.69187
5792 133.679 52.4303 4.04564
5890 130.854 55.3291 4.23552
5892 133.711 55.4091 4.35019
9790 130.879 52.5009 7.44105
9792 133.722 52.4971 7.26974
9890 130.812 55.3506 7.15945
9892 133.684 55.3247 7.16052
9893 135.078 53.8294 5.65338
5794 136.54 52.5129 4.15257
5894 136.574 55.3712 4.28238
9794 136.609 52.484 7.23279
9894 136.57 55.3323 7.15211
9895 138 53.9426 5.63993
5990 130.9 58.381 4.2648
9991 132.278 56.885 5.83935
5992 133.609 58.34 4.33765
9990 130.833 58.1961 7.20373
9992 133.765 58.2835 7.32921
9993 135.15 56.8701 5.80875
5994 136.521 58.3005 4.33465
9994 136.546 58.2998 7.26985
9995 138.048 56.8165 5.86139
6090 130.806 61.3649 4.36964
10090 130.721 61.2785 7.37843
10091 132.155 59.8112 5.85429
6092 133.753 61.2695 4.40326
10092 133.672 61.41 7.2751
10093 135.152 59.806 5.78736
6094 136.67 61.2894 4.38545
10094 136.576 61.2531 7.3358
10095 138.014 59.8843 5.79867
10191 132.294 62.8771 5.86095
6190 130.863 64.2127 4.24809
10291 132.293 65.584 5.83094
6192 133.704 64.2499 4.31486
10190 130.838 64.2559 7.40042
10192 133.716 64.3315 7.39283
10193 135.194 62.881 5.78499
10293 135.224 65.7028 5.80544
6194 136.66 64.2599 4.24018
10194 136.618 64.2695 7.33086
10195 138.019 62.8526 5.78342
10295 138.057 65.7546 5.86909
6290 130.804 67.0246 4.29583
10290 130.787 67.1671 7.23442
6292 133.738 67.1255 4.39332
10292 133.709 67.2021 7.27261
6294 136.62 67.1307 4.3091
10294 136.537 67.2406 7.34406
13791 132.279 50.9871 8.92852
1791 132.362 50.8316 11.5964
13793 135.315 50.9914 8.91565
1793 135.087 50.8938 11.6572
13795 138.001 50.9794 8.83598
1795 138.082 50.9155 11.7897
13890 130.776 55.4472 10.3601
13891 132.27 54.1138 8.79535
1891 132.261 53.975 11.9228
13790 130.938 52.5583 10.3506
13792 133.697 52.5854 10.2739
13892 133.745 55.4819 10.3806
13893 135.258 53.9743 8.81184
1893 135.205 54.052 11.8961
13794 136.572 52.4404 10.3639
13894 136.674 55.43 10.3708
13895 138.003 54.0064 8.75143
1895 138.09 53.9775 11.7501
13991 132.277 56.7022 8.78219
13990 130.827 58.3264 10.2579
1991 132.297 56.9812 11.811
13992 133.73 58.3834 10.196
13993 135.123 56.7133 8.71551
1993 135.163 57.0041 11.8082
13994 136.524 58.3184 10.1197
13995 137.98 56.818 8.75361
1995 137.962 56.9903 11.878
14091 132.266 59.8284 8.66431
2091 132.243 59.7394 11.8432
14090 130.814 61.1557 10.3711
14092 133.726 61.3264 10.3575
14093 135.049 59.8852 8.77467
2093 135.217 59.7689 11.7369
14094 136.525 61.3665 10.2677
14095 138.099 59.7934 8.74191
2095 137.909 59.7258 11.6946
14191 132.294 62.8295 8.77417
14291 132.219 65.7038 8.84454
2191 132.184 62.7272 11.8529
2291 132.191 65.6091 11.9104
14190 130.836 64.2618 10.4104
14192 133.776 64.2915 10.3045
2293 135.243 65.8044 11.7049
14293 135.118 65.7456 8.8951
14193 135.163 62.7827 8.77002
2193 135.237 62.7505 11.78
14194 136.599 64.1849 10.2267
14195 138.033 62.7148 8.75139
14295 138.105 65.6103 8.88649
2195 138 62.6471 11.8374
2295 138.1 65.6862 11.7566
14290 130.869 67.1258 10.4501
14292 133.669 67.1953 10.3914
14294 136.668 67.1527 10.2673
