ITEM: TIMESTEP
0
ITEM: NUMBER OF ATOMS
120
ITEM: BOX BOUNDS ss ss pp
-1.4803490598000003e-02 1.4801980349059801e+02
-1.1812892478400000e-02 1.1811681289247841e+02
0.0000000000000000e+00 1.1960000000000001e+01
ITEM: ATOMS id x y z
5797 141.079 51.0403 2.73118
5799 143.897 51.042 2.78962
1796 139.502 52.4568 1.24862
1896 139.465 55.5094 1.30843
5897 140.987 53.7649 2.72447
1798 142.302 52.4859 1.1645
1898 142.315 55.419 1.33183
5899 143.931 53.8614 2.70397
1800 145.375 52.6093 1.37722
1900 145.449 55.4246 1.11932
1996 139.427 58.4516 1.33045
5997 140.956 56.9449 2.74441
1998 142.38 58.2691 1.31253
5999 143.961 56.8694 2.72814
2000 145.524 58.3108 1.22299
2096 139.504 61.2884 1.24648
6097 140.962 59.7106 2.96245
2098 142.273 61.1901 1.27252
6099 144.016 59.6505 2.64253
2099 143.916 59.72 0.0258947
2100 145.474 61.2897 1.31269
6197 140.915 62.7369 2.80792
2196 139.538 64.1806 1.40139
6297 140.929 65.6493 2.79608
2198 142.423 64.1343 1.31949
6199 143.935 62.5746 2.74051
6299 144.114 65.5988 2.80105
2299 144.004 65.6167 0.0510069
2200 145.44 64.1143 1.29886
2296 139.567 67.1885 1.24426
2298 142.407 67.0281 1.35646
2300 145.669 67.056 1.3095
9797 140.966 51.1083 5.78823
9799 143.984 51.0366 5.63026
5796 139.602 52.515 4.23027
5896 139.458 55.3559 4.19527
9897 140.911 53.8445 5.83268
9796 139.455 52.5138 7.23117
9896 139.45 55.2926 7.24566
5798 142.488 52.3995 4.33886
5898 142.41 55.3503 4.28472
9899 143.929 53.9886 5.70992
9798 142.502 52.5101 7.26286
9898 142.427 55.4023 7.2195
5800 145.478 52.3501 4.19838
5900 145.525 55.2961 4.29147
9800 145.487 52.5118 7.09775
9900 145.595 55.43 7.19218
5996 139.493 58.4173 4.37921
9997 140.942 56.8184 5.77708
9996 139.515 58.2171 7.26022
5998 142.451 58.3017 4.27408
9999 144.004 56.7352 5.84846
9998 142.372 58.3783 7.19917
6000 145.534 58.268 4.12775
10000 145.635 58.3085 7.25302
6096 139.472 61.2821 4.31722
10097 140.908 59.8391 5.7557
10096 139.477 61.2418 7.27261
6098 142.451 61.2577 4.2643
10099 144.023 59.7954 5.62286
10098 142.396 61.3295 7.22737
6100 145.494 61.172 4.19868
10100 145.614 61.184 7.18451
10197 141.015 62.7864 5.80886
6196 139.455 64.2684 4.41145
10297 140.941 65.5899 5.89903
10196 139.589 64.2225 7.39863
6198 142.519 64.1719 4.27735
10199 143.986 62.5841 5.85264
10299 144.09 65.6236 5.87967
10198 142.465 64.1731 7.20101
6200 145.496 64.1175 4.35644
10200 145.62 64.0636 7.39983
6296 139.583 67.0752 4.32384
10296 139.564 67.1297 7.41723
6298 142.482 67.1228 4.34803
10298 142.501 67.1123 7.27585
6300 145.612 67.0535 4.34987
10300 145.715 67.0336 7.27045
13797 140.902 51.0766 8.72273
1797 140.971 51.0049 11.6385
13799 144.073 51.1402 8.73316
1799 143.967 50.9814 11.6747
13897 140.92 53.9035 8.68097
13796 139.549 52.4426 10.2574
13896 139.515 55.4986 10.2233
1897 140.97 54.0319 11.7123
13899 144.015 53.9545 8.7321
13798 142.368 52.5519 10.1462
1899 143.879 54.0095 11.694
13898 142.414 55.394 10.1151
13800 145.569 52.5172 10.4012
13900 145.464 55.446 10.1845
13997 140.968 56.8896 8.674
13996 139.502 58.3751 10.1703
1997 141.025 56.9736 11.7786
13999 144.054 56.8632 8.56025
13998 142.42 58.3072 10.2666
1999 143.879 56.8052 11.6923
14000 145.359 58.413 10.1966
14097 140.931 59.8892 8.745
14096 139.441 61.2367 10.3498
2097 140.922 59.7103 11.7913
14099 144.038 59.7362 8.54293
14098 142.509 61.2094 10.2942
14100 145.383 61.3057 10.1951
14197 140.987 62.6797 8.80052
14297 141.005 65.6117 8.87095
2197 140.903 62.6955 11.7896
14196 139.474 64.1457 10.2836
2297 140.843 65.5347 11.7731
14199 144.007 62.675 8.65509
14299 144.081 65.7058 8.74017
2199 143.963 62.8033 11.7417
14198 142.439 64.1592 10.2736
14200 145.39 64.1653 10.286
14296 139.536 67.1205 10.3917
14298 142.399 67.0313 10.2956
14300 145.718 67.0703 10.3859
