ITEM: TIMESTEP
10000
ITEM: NUMBER OF ATOMS
151
ITEM: BOX BOUNDS ss ss pp
-1.4803490598000003e-02 1.4801980349059801e+02
-1.1812892478400000e-02 1.1811681289247841e+02
0.0000000000000000e+00 1.1960000000000001e+01
ITEM: ATOMS id x y z
940 22.7211 51.2005 3.00317
942 25.6993 51.1734 2.96255
944 28.6588 50.9979 2.98559
439 21.3751 52.4997 1.26367
965 22.7048 53.9151 2.98299
464 21.31 55.4813 1.64747
465 22.6166 54.3793 0.00391017
441 24.1492 52.5243 1.33535
443 27.2073 52.4596 1.43727
466 24.2946 55.4816 1.53051
467 25.7006 54.0046 0.0619022
468 27.186 55.3504 1.60433
967 25.6335 53.7727 3.02422
469 28.6983 53.825 0.0584302
969 28.6537 53.625 3.09931
489 21.3109 58.3333 1.68067
490 22.811 56.957 0.116156
990 22.8617 56.9496 3.03741
491 24.4755 58.3338 1.61264
492 25.7909 56.9304 0.153901
493 27.32 58.3735 1.61602
992 25.8587 56.8022 3.18971
494 28.7433 56.6734 0.336126
994 28.858 56.6637 2.9733
1938 21.3505 61.1835 1.661
1939 22.9479 59.8794 0.173094
1964 22.7951 62.4992 0.0506487
2439 22.8066 59.7446 3.16296
1940 24.4856 61.2212 1.75117
1941 25.8653 59.8258 0.23103
1942 27.3075 61.422 1.88909
2441 25.9868 59.7853 3.18571
1943 28.6692 59.9358 0.31686
2443 28.8582 59.7476 3.36829
1963 21.2259 64.1258 1.48775
2464 22.7312 62.5572 3.13961
2489 22.6804 65.381 3.17258
1965 24.2222 64.1164 1.5567
1966 25.786 62.5854 0.112909
1967 27.1663 64.1051 1.51824
1991 25.5848 65.5932 0.0909366
2466 25.8352 62.8171 3.24541
2491 25.6774 65.395 3.03758
1968 28.6936 62.5505 0.182117
1993 28.6891 65.7438 0.0181341
1969 30.055 64.2258 1.49069
2468 28.8025 62.9725 3.195
2493 28.5648 65.5585 3.20506
1988 21.3187 66.9556 1.62138
1990 24.0849 67.0277 1.62583
1992 27.0669 66.9315 1.57029
1440 22.7907 50.8165 5.95371
1442 25.7467 50.8892 6.10109
1444 28.5586 50.7736 6.16326
939 21.3337 52.5629 4.69896
941 24.0809 52.4037 4.54115
964 21.2332 55.4438 4.52101
1439 21.3001 52.2305 7.46126
1465 22.7278 54.07 6.13691
943 27.1634 52.3195 4.65301
966 24.3349 55.3452 4.3879
968 27.2264 55.1918 4.5648
1441 24.2279 52.3819 7.51176
1467 25.655 53.9161 6.02389
1443 27.1304 52.3767 7.53483
1466 24.2949 55.53 7.55177
1468 27.2128 55.3053 7.62235
945 30.0629 52.1885 4.73296
1469 28.6812 53.8138 6.13112
1445 30.0557 52.2735 7.61138
989 21.3931 58.2053 4.56379
1490 22.8545 57.0142 5.9182
1464 21.2254 55.7135 7.38363
1489 21.3497 58.5261 7.58202
991 24.4236 58.4204 4.5079
1492 25.656 56.7564 5.91899
993 27.3349 58.1669 4.53806
1491 24.4484 58.3627 7.50496
1493 27.3498 58.1537 7.37572
1494 28.7507 56.5127 6.04454
2438 21.2387 61.0956 4.6561
2938 21.2533 61.2792 7.62413
2939 22.9298 59.7998 6.09963
2964 22.7817 62.5156 6.14632
2440 24.3521 61.2032 4.55852
2442 27.3939 61.3714 4.69548
2941 25.825 59.8569 6.00119
2940 24.4751 61.2347 7.60489
2942 27.3739 61.0867 7.59575
2943 28.8595 59.6213 5.88438
2463 21.3434 64.1151 4.85514
2963 21.3993 64.1674 7.7337
2989 22.8597 65.6989 6.35188
2465 24.2636 64.1316 4.78904
2467 27.2201 64.3066 4.84725
2966 25.7991 62.6448 6.15764
2965 24.3824 64.2141 7.68293
2967 27.1934 64.4948 7.67862
2968 28.6768 62.8321 6.39387
2488 21.4505 67.1224 4.54962
2988 21.2911 67.2411 7.78239
2490 24.2544 67.1224 4.45218
2492 27.0975 67.2698 4.4269
2991 25.8233 66.1152 6.18539
2990 24.315 67.2381 7.92765
2992 27.1496 67.4241 7.85619
2494 29.9503 67.2023 4.48185
2993 28.6128 66.0074 6.15259
2994 29.9504 67.3579 7.8075
440 22.7116 50.8968 11.5821
1458 22.7992 50.7556 9.00821
442 25.5743 51.0619 11.8305
1454 25.6113 50.8917 9.26137
988 28.6387 50.8105 9.08575
444 28.5713 50.804 11.8735
958 22.688 54.1284 8.78489
1460 21.3569 52.6749 10.3528
960 21.1285 55.4704 10.229
1456 24.1061 52.6052 10.5425
1452 27.1737 52.434 10.4428
954 25.6114 53.9236 9.05119
956 24.3314 55.4576 10.4697
952 27.3826 55.3537 10.5508
488 28.7838 53.8844 9.17993
480 22.8582 56.9939 9.14486
481 21.3366 58.4121 10.6643
478 25.8304 56.9238 9.08672
479 24.4639 58.4525 10.6536
477 27.3356 58.3324 10.704
476 28.8017 57.1276 9.16703
462 30.0643 58.3805 10.8071
3438 21.2987 61.2 10.5588
3439 22.7801 59.8435 9.21024
3464 22.8233 62.4287 9.10196
3440 24.5858 61.268 10.5089
3441 26.0022 59.618 8.99826
3442 27.2766 61.2495 10.5033
3443 28.7116 59.565 8.97221
3463 21.2774 64.0296 10.5476
3489 22.8219 65.5789 9.19253
1989 22.7277 65.5795 11.9213
3466 26.057 62.7496 8.9621
3465 24.3055 63.9728 10.553
3491 25.6393 65.7542 9.30022
3467 27.3046 64.1922 10.5514
3468 28.7668 62.7323 8.98509
3493 28.6237 65.8729 9.25886
3488 21.3184 67.3923 10.6958
3490 24.1376 67.3069 10.6999
3492 27.0942 67.3207 10.7023
3494 30.024 67.4318 10.7551
