ITEM: TIMESTEP
10000
ITEM: NUMBER OF ATOMS
161
ITEM: BOX BOUNDS ss ss pp
-1.4803490598000003e-02 1.4801980349059801e+02
-1.1812892478400000e-02 1.1811681289247841e+02
0.0000000000000000e+00 1.1960000000000001e+01
ITEM: ATOMS id x y z
446 31.609 50.5417 0.029028
946 31.4589 50.8998 3.03174
948 34.3087 50.7545 3.10086
450 37.2556 50.5718 0.13755
950 37.3023 50.5791 3.04256
445 30.0977 52.2545 1.39525
470 30.256 55.0884 1.603
447 32.998 52.1723 1.48324
472 33.1748 55.0368 1.6032
971 31.4888 53.4801 3.1309
449 35.8047 52.1582 1.53293
474 35.9695 54.9837 1.46102
973 34.4422 53.4392 3.1169
975 37.3218 53.565 3.08888
4263 38.7325 52.1711 1.55278
4289 38.729 55.0431 1.63221
495 30.1857 58.3349 1.68997
496 31.6092 56.7909 0.274621
497 33.0194 58.3675 1.75
498 34.3905 56.8253 0.250371
996 31.6884 56.6381 3.00578
998 34.4898 56.7229 2.83086
499 35.8265 58.5136 1.71305
1000 37.3097 56.7212 2.93856
500 37.2748 56.8831 0.289593
4315 38.7784 58.4805 1.82232
1944 30.1585 61.3484 1.7986
1945 31.5408 60.0496 0.2251
1946 32.9497 61.2929 1.80324
2445 31.4758 59.7371 3.21902
1948 35.8979 61.4149 1.84483
1947 34.5121 60.0096 0.2178
2447 34.4121 59.7576 3.38621
1949 37.3711 59.9903 0.0858463
2449 37.2854 59.9145 3.39023
5821 38.7516 61.3906 1.6971
1970 31.5206 62.5738 0.062407
1971 32.9504 64.2052 1.44129
1997 34.3016 65.6549 0.0640103
2470 31.688 63.0406 3.24094
2495 31.5165 65.5214 3.23685
2497 34.3285 65.6006 3.18495
1972 34.4298 62.5446 0.182484
1973 35.8402 64.2439 1.45601
2472 34.4675 63.0566 3.24917
1974 37.2758 62.55 0.00863582
2474 37.3358 63.0696 3.00879
2499 37.3425 65.7099 3.09451
5847 38.7249 64.2674 1.41692
1994 30.1163 67.0436 1.71403
1996 32.9869 67.0704 1.75941
1998 35.9393 67.0275 1.56666
5873 38.8256 67.1049 1.68483
1446 31.5641 50.7291 6.2605
1448 34.3222 50.6395 6.19332
949 35.8329 52.0746 4.6426
1450 37.2215 50.587 6.1192
4783 38.7642 52.0705 4.65815
970 30.1196 55.0743 4.45101
1470 30.1638 55.3757 7.80143
947 32.9644 52.1735 4.7288
972 33.0155 55.1784 4.5004
1471 31.5162 53.8996 6.2399
1447 32.9137 52.4541 7.68808
1472 33.0198 55.3366 7.7682
974 35.9202 55.2105 4.42023
1473 34.4969 53.8319 6.00102
1449 35.8469 52.3024 7.52533
1474 35.9252 55.2916 7.75807
1475 37.2043 53.8648 6.05017
4809 38.7711 55.1411 4.50995
5303 38.6356 52.3026 7.57583
5329 38.7879 55.0434 7.76795
995 30.1787 57.9754 4.60417
1495 30.1874 58.2094 7.50614
997 33.0183 57.9788 4.63158
1496 31.5637 56.633 6.08247
1497 33.0464 58.2196 7.50586
999 35.8815 58.0535 4.61345
1498 34.5539 56.5019 6.16637
1499 35.9083 58.2271 7.4821
1500 37.3485 56.4991 6.15584
4835 38.6796 58.0768 4.58782
5355 38.7332 58.2092 7.37085
2444 30.2642 61.4072 4.72413
2944 30.2674 61.0516 7.52478
2945 31.6674 59.6714 5.91365
2446 33.056 61.4474 4.77714
2947 34.3456 59.7563 6.01
2946 33.0063 61.068 7.59687
2448 35.8922 61.5673 4.65805
2948 35.9493 61.1177 7.51241
2949 37.3325 59.7361 5.89806
6341 38.8003 61.541 4.70357
6861 38.8802 61.1268 7.55615
2469 30.0989 64.4001 4.88174
2969 30.15 64.4618 7.76834
2471 32.9844 64.3813 4.91627
2970 31.6796 62.8779 6.33009
2971 32.9763 64.5519 7.71834
2473 36.0263 64.3616 4.77018
2972 34.4868 62.8347 6.27368
2997 34.4942 65.9503 6.06271
2973 35.8366 64.6305 7.59376
2974 37.3896 62.9205 6.35074
6367 38.9106 64.4294 4.72445
6887 38.8633 64.6233 7.53857
2496 32.861 67.256 4.58599
2995 31.5091 66.0195 6.23364
2996 32.8396 67.4674 7.85745
2498 35.8853 67.1939 4.44788
2998 35.8472 67.4229 7.85464
2999 37.3344 66.1511 6.19984
6393 38.7319 67.3047 4.54246
6913 38.795 67.4825 7.79028
986 31.3784 50.7688 8.95387
984 34.3076 50.7196 8.97084
448 34.2442 50.4436 11.9539
985 32.9387 52.0119 10.451
983 35.8352 52.0587 10.4786
982 37.1862 50.5399 8.88233
5770 38.733 51.9331 10.5099
987 30.091 52.1796 10.5037
487 30.2767 55.4514 10.6357
471 31.5132 53.702 11.9252
486 31.4808 53.7411 9.21622
485 33.0171 55.3546 10.6555
473 34.5599 53.6922 11.833
484 34.4987 53.7984 9.20642
483 35.9098 55.4149 10.7015
482 37.2152 53.6611 9.22428
475 37.3233 53.6454 11.7504
5120 38.7479 55.2891 10.5748
460 31.5564 57.1503 9.25366
458 32.9544 58.447 10.8905
454 35.8563 58.282 10.7271
456 34.4951 56.8744 9.27696
452 37.3923 56.9589 9.03285
4470 38.779 58.3555 10.7883
3444 30.1737 61.2805 10.3962
3445 31.5933 59.6642 9.09487
3446 33.1233 61.2297 10.5007
3448 35.903 61.1736 10.3792
3447 34.443 59.5906 8.9826
3449 37.4519 59.5281 9.00469
7381 38.7877 61.2129 10.3193
3469 30.0941 64.1205 10.6119
3470 31.5776 62.7578 8.87419
3471 33.0172 64.101 10.5699
3495 31.4051 65.8169 9.41755
1995 31.5908 65.7603 11.9291
3497 34.3974 65.7565 9.26628
3472 34.5188 62.8486 8.83344
3473 35.8665 64.0462 10.4715
3474 37.3573 62.873 8.87303
1999 37.3209 65.6424 11.8683
3499 37.3049 65.9599 9.26658
7407 38.6962 64.2313 10.4978
3496 32.8826 67.4457 10.7399
3498 35.7119 67.5294 10.7334
7433 38.7161 67.4679 10.6478
