ITEM: TIMESTEP
10000
ITEM: NUMBER OF ATOMS
144
ITEM: BOX BOUNDS ss ss pp
-1.4803490598000003e-02 1.4801980349059801e+02
-1.1812892478400000e-02 1.1811681289247841e+02
0.0000000000000000e+00 1.1960000000000001e+01
ITEM: ATOMS id x y z
4784 40.1819 50.6361 2.885
4264 40.1805 50.7112 0.165618
4266 43.0203 50.695 0.246479
4786 42.954 50.6561 3.00567
4268 45.9511 50.5563 0.219325
4788 45.9816 50.518 2.89603
4290 40.0589 53.6671 0.0616319
4810 40.209 53.498 3.1917
4265 41.5819 52.2979 1.59723
4267 44.5304 52.2681 1.64382
4292 43.1165 53.7309 0.170546
4291 41.6172 55.0095 1.7277
4293 44.5741 55.1859 1.86482
4812 43.0593 53.5652 3.33782
4269 47.3713 52.304 1.66486
4294 46.065 53.767 0.0722737
4295 47.4472 55.0225 1.68772
4814 45.9804 53.7219 3.41928
4316 40.0475 56.7069 0.434847
4836 40.1088 56.661 3.04666
4317 41.4897 58.3922 1.65711
4318 43.0856 56.5727 0.368441
4319 44.4877 58.0868 1.64592
4838 42.9277 56.7499 3.18715
4320 45.944 56.5423 0.171011
4321 47.4218 58.13 1.32134
4840 46.1028 56.7885 3.07452
5822 40.196 59.857 0.0710637
6342 40.0986 59.8059 3.32277
5823 41.667 61.273 1.67441
5825 44.5296 60.9995 1.58712
5824 43.0785 59.6107 0.0396272
6344 42.9929 59.6442 3.31231
5827 47.4817 61.0235 1.55253
6346 46.023 59.4492 3.1536
5848 40.1475 62.8525 0.120313
5874 40.1699 65.7459 0.0315984
6368 40.1772 63.0168 3.14364
6394 40.2366 65.6153 3.06352
5850 43.1912 62.8734 0.359024
6370 43.1645 62.8326 2.98813
5849 41.6828 64.3027 1.5176
5851 44.6489 64.3884 1.79125
5876 43.1167 65.7965 0.164924
6396 43.2078 65.6841 3.25671
5852 45.9931 62.7152 0.318234
6372 46.0824 62.5462 2.914
5853 47.4395 64.3858 1.6703
5878 45.9252 65.9004 0.101892
6398 45.989 65.9774 3.29597
5875 41.7003 67.0927 1.60528
5877 44.4735 67.2718 1.57818
5879 47.4088 67.3858 1.69342
5304 39.952 50.5064 6.11431
4785 41.5851 51.9989 4.68392
4787 44.4977 51.9435 4.51031
5306 43.1549 50.4421 6.1381
4789 47.3787 51.8411 4.58375
5308 46.0825 50.392 6.1195
5330 40.0545 53.7766 6.0809
4811 41.6107 55.1417 4.6338
4813 44.4841 55.2253 4.72059
5305 41.7061 52.1736 7.58686
5332 43.0967 53.7131 6.03776
5307 44.5382 52.2038 7.43307
5331 41.61 55.0967 7.65727
5333 44.5324 55.1967 7.61831
5334 45.9118 53.5975 5.86765
4815 47.3704 55.3611 4.64435
5309 47.3984 52.1231 7.41479
5335 47.2979 54.9941 7.58255
5356 40.0481 56.626 6.23179
4837 41.5875 58.0773 4.63423
4839 44.5587 58.1185 4.68806
5357 41.6284 58.2433 7.36814
5358 43.131 56.6179 6.24002
5359 44.4291 58.4219 7.56467
4841 47.3999 58.3261 4.86634
5360 46.0116 56.7285 6.14833
5361 47.3267 58.3078 7.69695
6862 40.0692 59.8213 5.80158
6343 41.6284 61.4853 4.58308
6864 43.1085 59.7615 5.96664
6345 44.4955 61.2262 4.49597
6863 41.7323 61.1024 7.59047
6865 44.482 61.0384 7.80018
6347 47.4475 61.1502 4.50551
6866 45.8968 59.8607 6.16255
6867 47.3756 61.1892 7.76078
6892 45.9314 62.4818 6.24957
6888 40.2857 62.9193 6.24464
6371 44.659 63.9651 4.64465
6369 41.7837 64.2751 4.70455
6890 43.192 62.6777 6.34316
6889 41.7556 64.5172 7.65077
6916 43.2392 65.9527 6.01827
6891 44.5731 64.4242 7.50657
6373 47.415 64.0193 4.51663
6918 45.8493 65.8561 5.81469
6893 47.3928 64.2406 7.45763
6914 40.2126 66.0438 6.12387
6395 41.6573 67.2972 4.50069
6397 44.4655 67.6349 4.42787
6915 41.6291 67.4312 7.71265
6917 44.5376 67.2741 7.52655
6399 47.4188 67.648 4.61824
6919 47.3492 67.1483 7.42456
5744 40.1673 50.6601 8.96495
5692 43.0824 50.6107 9.02135
5640 45.9929 50.8182 9.07553
5094 40.2555 53.5649 9.03475
5718 41.6019 52.114 10.6174
5042 43.0648 53.4854 9.00488
5666 44.5162 52.1298 10.6903
5068 41.5928 55.1597 10.6314
5016 44.5325 55.0533 10.4674
4990 45.937 53.413 9.07871
5614 47.3594 52.1237 10.6792
4964 47.3753 55.1496 10.4918
4444 40.2495 56.7128 9.11427
4418 41.6452 57.9508 10.8204
4392 43.0676 56.7684 9.02968
4366 44.3961 57.9897 10.654
4340 45.8929 56.7065 9.00628
4314 47.3404 57.9911 10.5263
7382 40.3194 59.5299 9.08783
7383 41.5982 61.3582 10.5991
7384 42.9603 59.5394 9.35773
7385 44.5399 61.3949 10.6069
5826 45.9464 59.6497 11.8901
7386 46.018 59.6677 9.4339
7387 47.4799 61.4427 10.592
7408 40.3198 62.8198 8.8282
7434 40.1792 65.8788 9.23973
7410 43.0449 62.8122 8.91309
7409 41.6327 64.1897 10.6123
7436 43.2075 65.8003 9.26782
7411 44.5015 64.2889 10.7238
7412 45.9331 62.83 9.03718
7438 45.8994 65.7362 9.21443
7413 47.3207 64.2543 10.6851
7435 41.6361 67.3543 10.5952
7437 44.48 67.5208 10.4975
7439 47.3821 67.46 10.4586
