ITEM: TIMESTEP
10000
ITEM: NUMBER OF ATOMS
144
ITEM: BOX BOUNDS ss ss pp
-1.4803490598000003e-02 1.4801980349059801e+02
-1.1812892478400000e-02 1.1811681289247841e+02
0.0000000000000000e+00 1.1960000000000001e+01
ITEM: ATOMS id x y z
4270 48.8611 50.544 0.275517
4790 48.7758 50.6126 2.85468
4272 51.5909 50.6437 0.262267
4792 51.6664 50.5214 2.9298
4274 54.4133 50.5805 0.406154
4794 54.4618 50.5826 2.80942
4271 50.2799 52.2617 1.63505
4297 50.2392 55.0952 1.72576
4816 48.8448 53.6222 3.30264
4298 51.7096 53.7917 0.0126272
4273 53.1346 52.2213 1.62234
4300 54.5576 53.9262 0.132586
4299 53.1627 55.1293 1.69951
4818 51.6276 53.6074 3.28939
4820 54.5106 53.724 3.28439
4275 55.9693 52.2776 1.66854
4301 56.0945 55.1829 1.81051
4322 48.8424 56.4919 0.204398
4323 50.2996 58.1362 1.46134
4842 48.7218 56.7034 2.99961
4324 51.7177 56.4341 0.0342764
4326 54.5196 56.4364 0.10082
4325 53.1579 58.2047 1.51747
4844 51.7037 56.8413 3.048
4846 54.6279 56.8568 3.13515
4327 55.9845 58.0778 1.38402
5829 50.3861 61.112 1.54427
6348 48.7905 59.5207 3.10822
5831 53.3024 61.1465 1.47137
5832 54.623 59.6683 0.00189443
6350 51.7109 59.5372 3.16125
6352 54.6588 59.4631 3.1596
5833 56.0782 61.0242 1.53665
5854 48.8419 62.8676 0.388726
6374 48.9175 62.5985 2.93472
5855 50.3384 64.3861 1.67165
6400 48.978 65.8749 3.24572
6376 51.8047 62.7041 2.91746
5856 51.8558 62.8165 0.363187
5858 54.6647 62.7706 0.204835
6378 54.7308 62.9164 2.90364
5857 53.2426 64.5601 1.60249
6402 51.669 65.8111 3.28859
6404 54.5273 65.9478 3.23805
5859 56.126 64.4866 1.61537
5880 48.8193 66.0075 0.134366
5881 50.1561 67.3576 1.68662
5882 51.6351 66.0389 0.173639
5884 54.5839 66.0984 0.0379425
5883 53.1483 67.3813 1.74059
5885 56.0177 67.3319 1.75144
4791 50.2164 51.9403 4.52938
5310 48.8113 50.4011 6.09212
5311 50.2568 52.0961 7.42533
5312 51.6352 50.2769 5.9365
4793 53.0854 51.9823 4.51479
5314 54.5097 50.3972 6.0342
5313 53.0604 52.0398 7.28771
4795 55.9543 51.9729 4.52259
5315 55.9828 52.0247 7.41099
5336 48.8361 53.6665 5.95674
5338 51.5451 53.5866 5.94897
4817 50.2049 55.3743 4.67612
5337 50.1997 54.9423 7.55155
5340 54.5956 53.5245 5.87115
4819 53.0826 55.3436 4.67821
5339 53.1285 54.8748 7.56725
4821 55.9871 55.3166 4.80926
5341 55.9495 54.8802 7.54235
4843 50.2938 58.2156 4.66377
5362 48.8298 56.6152 6.36923
5363 50.2391 58.4091 7.64479
4845 53.1068 58.3605 4.79609
5364 51.7197 56.6697 6.41407
5366 54.6002 56.6844 6.50539
5365 53.1575 58.442 7.73251
4847 56.0277 58.1128 4.77972
5367 55.9506 58.4022 7.67956
6349 50.2764 61.0626 4.38906
6868 48.8396 59.8286 6.17271
6869 50.3285 61.3156 7.80781
6894 48.8977 62.5049 6.09634
6351 53.25 61.2465 4.44855
6870 51.7313 59.9053 6.1667
6871 53.1873 61.3285 7.77845
6872 54.7576 59.8274 6.08431
6353 56.0023 61.2223 4.4126
6873 56.0125 61.2141 7.7468
6375 50.2996 64.0753 4.57234
6920 48.9539 65.7672 5.88906
6895 50.342 64.226 7.35038
6896 51.7577 62.579 5.90393
6898 54.6162 62.636 5.97293
6922 51.7117 65.8202 5.96043
6377 53.1338 64.1892 4.45732
6924 54.4746 65.7929 5.90336
6897 53.1563 64.2011 7.41428
6379 56.0847 64.2248 4.50537
6899 56.0451 64.2515 7.38784
6401 50.259 67.5577 4.70254
6921 50.2066 67.2813 7.57051
6403 53.1429 67.5386 4.62046
6923 53.108 67.2023 7.56408
6405 56.0784 67.5466 4.69517
6925 56.0103 67.129 7.46579
5588 48.8084 50.7866 9.08826
5536 51.5563 50.8061 9.10013
5484 54.4394 50.7796 9.04666
4296 48.8907 53.7358 11.96
4938 48.7264 53.5182 9.09857
5562 50.2082 52.1349 10.6644
4886 51.5897 53.4867 9.09604
4912 50.2589 55.103 10.363
4834 54.4802 53.2474 9.01063
5510 53.1638 52.2139 10.6643
4860 53.0791 55.1156 10.3376
5458 55.9169 52.1577 10.7929
4808 55.9374 54.9764 10.3353
4288 48.7944 56.5944 8.93526
4262 50.2624 57.9851 10.5536
4236 51.6596 56.6255 8.836
4184 54.5254 56.6354 8.87203
4210 53.0913 57.9923 10.5052
4158 55.983 57.932 10.5364
7388 48.8359 59.6605 9.30937
5828 48.881 59.6334 11.8227
7389 50.2803 61.4736 10.6502
7390 51.6027 59.9485 9.35407
5830 51.7749 59.5746 11.9412
7391 53.111 61.4489 10.5958
7392 54.6473 59.8694 9.23596
7393 55.9905 61.4911 10.7113
7414 48.9359 62.9242 9.00437
7440 48.8261 65.579 9.05889
7415 50.2548 64.31 10.6458
7416 51.7543 63.0058 9.22313
7418 54.6294 62.942 9.04499
7442 51.7222 65.7267 8.98666
7417 53.1398 64.3926 10.7219
7444 54.4931 65.6002 8.98516
7419 56.0537 64.2861 10.7158
7441 50.2458 67.2092 10.4172
7443 53.2228 67.3839 10.4126
7445 56.0306 67.3164 10.41
