ITEM: TIMESTEP
10000
ITEM: NUMBER OF ATOMS
168
ITEM: BOX BOUNDS ss ss pp
-1.4803490598000003e-02 1.4801980349059801e+02
-1.1812892478400000e-02 1.1811681289247841e+02
0.0000000000000000e+00 1.1960000000000001e+01
ITEM: ATOMS id x y z
4276 57.4392 50.552 0.317713
4796 57.5402 50.6165 2.86441
4278 60.1863 50.6366 0.341509
4798 60.3197 50.5506 2.9233
4800 63.2067 50.5704 2.7859
4280 63.2232 50.6754 0.169579
4802 66.0115 50.6005 2.80245
4282 66.0595 50.7318 0.449559
4302 57.4778 53.8915 0.115728
4822 57.4732 53.6938 3.37425
4277 58.8328 52.3426 1.63796
4304 60.2945 53.7762 0.0674037
4279 61.7804 52.3476 1.59984
4303 58.9026 55.2019 1.74146
4305 61.777 55.1514 1.69523
4824 60.271 53.592 3.26148
4306 63.1373 53.8368 0.0555972
4281 64.5565 52.2981 1.62799
4307 64.7453 55.162 1.69014
4826 63.1784 53.758 3.319
4308 65.9979 53.7405 0.249443
4828 66.0581 53.7269 3.24275
4328 57.4425 56.3608 0.106424
4848 57.4472 56.7344 3.12446
4330 60.4257 56.2905 0.0876547
4329 58.8466 58.1081 1.46995
4331 61.7598 58.0699 1.47865
4850 60.333 56.8153 3.10218
4332 63.2711 56.3078 0.0513532
4333 64.6498 58.0993 1.33414
4852 63.1912 56.9123 3.11656
4334 66.1001 56.3329 0.102948
4854 66.1457 56.8299 3.05598
6354 57.462 59.6195 3.1014
5835 58.9874 60.9789 1.52112
5837 61.7035 60.923 1.61876
6356 60.331 59.4946 3.12987
5839 64.5372 60.99 1.58986
6358 62.9828 59.3767 3.05394
6360 65.9585 59.392 3.07428
5860 57.523 62.8172 0.297072
6380 57.4966 62.8155 2.7984
6406 57.6887 65.912 3.34403
6382 60.346 62.5493 2.82106
5862 60.2562 62.7665 0.341409
5861 59.0357 64.611 1.74479
5863 61.7719 64.5506 1.70577
6408 60.3458 65.8927 3.26506
6384 63.2487 62.731 2.79693
5864 63.0048 62.8579 0.399482
5865 64.6656 64.4985 1.67873
6410 63.0681 65.8769 3.33627
5866 66.0023 62.7794 0.369938
6386 66.1623 62.6991 2.97301
6412 66.2074 65.8993 3.27419
5886 57.4867 66.0733 0.139193
5888 60.3843 66.0616 0.06948
5887 58.8749 67.5276 1.80837
5889 61.7629 67.3811 1.60167
5890 63.2707 66.0285 0.128217
5891 64.6855 67.3965 1.81003
5892 65.9718 66.0299 0.168411
5316 57.4614 50.3422 6.01391
4797 58.8828 51.8961 4.47164
4799 61.7312 51.8508 4.51733
5318 60.3244 50.4403 6.06709
5317 58.7664 52.0262 7.3619
5319 61.7045 51.9647 7.38173
4801 64.6724 51.8755 4.54504
5320 63.224 50.4333 6.11587
5321 64.6284 52.0217 7.45619
5322 66.1248 50.4257 6.06663
5342 57.3772 53.6213 5.88057
5344 60.2507 53.5196 5.82734
4823 58.9622 55.3651 4.72023
4825 61.7837 55.4258 4.70443
5343 58.7713 54.901 7.54556
5345 61.7697 54.8257 7.52467
5346 63.1379 53.5567 5.74033
4827 64.6234 55.4008 4.60132
5347 64.6441 54.9512 7.5308
5348 66.0856 53.5098 5.76977
5368 57.3992 56.6593 6.28753
4849 58.8788 58.1599 4.83443
4851 61.7527 58.1246 4.80084
5370 60.2851 56.6439 6.35887
5369 58.8799 58.4578 7.57888
5371 61.792 58.4208 7.70999
4853 64.6427 58.1652 4.83302
5372 63.1891 56.624 6.28888
5373 64.6296 58.3317 7.69026
5374 66.1567 56.7924 6.28022
6874 57.4668 59.8638 6.06261
6355 58.917 61.2445 4.42094
6357 61.7533 61.23 4.36503
6876 60.3632 59.9617 6.17436
6875 58.8153 61.2968 7.74411
6877 61.7651 61.384 7.9448
6902 60.4544 62.5108 6.124
6359 64.6539 61.2082 4.48039
6878 63.1849 59.7824 6.15012
6879 64.5703 61.4093 7.82674
6880 66.1088 59.9745 6.18064
6906 66.0663 62.4952 6.15546
6900 57.4902 62.5593 5.96876
6926 57.5184 65.771 5.91906
6381 58.9791 64.0727 4.47025
6383 61.7044 64.109 4.48181
6928 60.2573 65.8818 5.78644
6901 59.0009 64.1987 7.34562
6903 61.8461 64.2529 7.32852
6385 64.6186 64.1542 4.51093
6930 63.1753 65.6783 5.75595
6904 63.2712 62.6239 6.12321
6905 64.7124 64.3091 7.35357
6932 66.1308 65.9302 5.80318
6407 58.9362 67.5958 4.65007
6409 61.7613 67.6744 4.55805
6927 58.9171 67.1471 7.57158
6929 61.8419 67.1455 7.4532
6411 64.7267 67.6349 4.6357
6931 64.5853 67.1693 7.56386
5432 57.4207 50.7323 9.10348
5380 60.2228 50.781 9.03913
5328 63.1294 50.7084 9.08426
5276 66.0941 50.7976 9.23299
4782 57.4225 53.3278 9.01343
4730 60.1908 53.4007 8.96857
5406 58.7398 52.1279 10.7171
5354 61.7029 52.2506 10.6302
4756 58.9195 55.1025 10.3803
4704 61.7554 54.9998 10.3098
4678 63.2611 53.2906 9.05966
5302 64.7265 52.1468 10.774
4652 64.67 55.0462 10.3728
4626 66.1938 53.4219 9.07243
4132 57.3603 56.6709 8.84876
4080 60.4179 56.7005 8.76115
4106 58.8847 57.9327 10.5316
4054 61.7508 57.9134 10.6035
4028 63.1443 56.5544 8.88913
4002 64.6985 58.0319 10.4831
3976 66.162 56.6255 8.85343
7394 57.396 59.7359 9.24948
5834 57.3262 59.8272 11.821
5836 60.2938 59.6703 11.8589
7396 60.3111 59.7245 9.29906
7395 58.8771 61.4304 10.6175
7397 61.8326 61.5096 10.6281
5838 63.1293 59.6815 11.8922
7398 63.1589 59.7825 9.37156
7399 64.6955 61.3995 10.6958
5840 66.1031 59.4929 11.8345
7400 66.199 59.8321 9.29465
7420 57.6155 62.9285 9.1097
7446 57.5069 65.5371 9.04044
7448 60.3079 65.6155 8.928
7422 60.3701 63.0309 9.05773
7421 58.9595 64.3481 10.8089
7423 61.8038 64.2896 10.7507
7424 63.2179 62.9511 9.06551
7450 63.2361 65.4551 9.05374
7425 64.6927 64.2951 10.7833
7426 66.1581 62.9963 9.10969
7452 66.1626 65.5231 9.13057
7447 58.8618 67.27 10.3477
7449 61.7051 67.1706 10.3174
7451 64.6899 67.3921 10.3216
