ITEM: TIMESTEP
10000
ITEM: NUMBER OF ATOMS
144
ITEM: BOX BOUNDS ss ss pp
-1.4803490598000003e-02 1.4801980349059801e+02
-1.1812892478400000e-02 1.1811681289247841e+02
0.0000000000000000e+00 1.1960000000000001e+01
ITEM: ATOMS id x y z
4284 69.0302 50.7077 0.284532
4804 68.9776 50.465 2.91066
4806 71.9786 50.5617 2.9285
4286 71.9051 50.5334 0.265007
9780 74.9126 50.4418 2.85803
9759 74.8005 50.5106 0.205852
4283 67.5954 52.3465 1.74412
4309 67.6138 55.2104 1.7805
4285 70.4814 52.2715 1.63883
4310 69.0906 53.769 0.184665
4312 72.0021 53.8509 0.287125
4311 70.4988 55.2202 1.83437
4830 68.9937 53.7579 3.30393
4832 72.0145 53.7439 3.31421
4287 73.3736 52.3103 1.67673
4313 73.41 55.3027 1.88174
9760 74.773 53.8171 0.154161
9781 74.9212 53.5788 3.305
4335 67.507 58.0665 1.4204
4336 69.0716 56.5045 0.0935451
4337 70.4629 58.1622 1.44318
4338 71.9076 56.5365 0.225575
4856 68.9942 56.841 3.12509
4858 71.8996 56.8747 3.17367
4339 73.3674 58.25 1.36381
9761 74.8265 56.4633 0.0518385
9782 74.7628 56.9334 3.18008
5841 67.5015 60.9408 1.7003
5843 70.4543 60.976 1.46554
6362 69.0797 59.4443 3.03592
6364 71.9568 59.4455 3.00454
5845 73.2466 61.1597 1.63835
11762 74.7118 59.5298 3.18241
5867 67.4805 64.4611 1.67019
5868 69.048 62.7042 0.467218
6388 69.0207 62.6824 2.9175
6390 71.9735 62.8171 2.8752
5870 71.8808 62.8035 0.314706
5869 70.4052 64.4998 1.63919
6414 69.0111 65.9508 3.24525
6416 71.8972 65.8596 3.37601
5871 73.2753 64.564 1.66158
11743 74.8147 62.8106 0.360992
11763 74.7271 62.6721 2.99012
11764 74.7551 65.9258 3.45468
5893 67.6003 67.3735 1.75066
5894 69.0572 66.1079 0.246348
5896 71.8014 66.1252 0.264155
5895 70.5358 67.4409 1.76136
5897 73.3633 67.454 1.856
11744 74.6941 66.183 0.211849
4803 67.5695 51.9269 4.47012
5323 67.5475 51.9894 7.52296
4805 70.4948 51.9254 4.55595
5324 68.9634 50.4673 6.10049
5326 71.919 50.3684 6.09094
5325 70.3944 51.9511 7.39035
4807 73.3494 51.9824 4.53374
5327 73.3703 51.9907 7.32612
9801 74.7821 50.3271 5.99986
4829 67.535 55.3554 4.70717
5349 67.4988 55.026 7.51797
5350 68.9792 53.4394 5.89381
5352 71.9459 53.6013 5.88635
4831 70.4989 55.2936 4.62367
5351 70.3225 54.7903 7.55975
4833 73.3783 55.2808 4.69231
5353 73.3644 54.8486 7.53854
9802 74.9115 53.6029 5.88
4855 67.5114 58.3626 4.74776
5375 67.497 58.4883 7.63456
4857 70.3486 58.2151 4.72923
5376 68.9632 56.7747 6.32246
5377 70.393 58.3698 7.6597
5378 71.8327 56.6712 6.30184
4859 73.2547 58.1747 4.94309
5379 73.3316 58.368 7.83144
9803 74.7921 56.7823 6.34787
6361 67.5571 61.2462 4.49643
6881 67.5968 61.3632 7.81734
6363 70.4503 61.2396 4.38908
6882 68.9985 59.943 6.19773
6883 70.4314 61.3625 7.78269
6884 71.8867 59.9943 6.22746
6908 68.99 62.4883 6.03164
6365 73.22 61.185 4.47075
6885 73.3212 61.3404 7.79949
11783 74.7293 59.8906 6.17074
6387 67.5335 64.1378 4.60961
6907 67.5384 64.2239 7.46239
6389 70.4225 64.0334 4.55003
6934 68.9948 65.7658 5.83523
6936 71.9048 65.6398 5.83568
6910 71.8844 62.5776 6.08974
6909 70.4186 64.2551 7.40874
6391 73.376 64.0521 4.58632
6911 73.2875 64.2333 7.48292
11785 74.8004 65.6824 5.89807
11784 74.6888 62.5776 6.09682
6413 67.6049 67.5904 4.6768
6933 67.6111 67.2008 7.57965
6415 70.4067 67.5183 4.61018
6935 70.4097 67.0987 7.49323
6417 73.3016 67.5671 4.80176
6937 73.2705 67.0369 7.69183
5224 69.029 50.7857 9.19995
5172 71.7847 50.8146 9.18138
9794 74.8118 50.6967 9.05971
5250 67.5781 52.1568 10.7868
4600 67.579 54.9872 10.4398
4574 68.9738 53.3952 9.05314
5198 70.4817 52.1623 10.6935
4522 71.9593 53.4233 9.01629
4548 70.4511 55.1061 10.4567
5146 73.31 52.1341 10.7677
4496 73.327 55.0863 10.4525
9768 74.8841 53.4094 8.99867
3950 67.4946 57.9048 10.5014
3924 68.9913 56.6404 8.86971
3872 71.8156 56.5464 8.89727
3898 70.4107 58.0628 10.5085
3846 73.3577 58.0145 10.5523
9742 74.7169 56.5535 9.04704
7401 67.5647 61.3355 10.7168
7402 68.9637 59.6779 9.31593
5842 69.0127 59.685 11.9078
7403 70.4878 61.4713 10.6763
5844 71.8616 59.6371 11.8291
7404 71.9071 59.8574 9.38366
7405 73.3811 61.2958 10.7504
11804 74.8457 59.9034 9.2798
11741 74.823 59.6559 11.857
7427 67.5431 64.3933 10.8931
7428 69.0242 63.1132 9.21064
7430 71.889 62.8624 9.22094
7454 69.0189 65.5269 9.09593
7429 70.3991 64.3214 10.8453
7456 71.7981 65.5806 9.14563
7431 73.3348 64.3937 10.7793
11805 74.8522 62.9814 9.27438
11806 74.8492 65.6051 9.11745
7453 67.4842 67.206 10.4103
7455 70.4089 67.2501 10.4093
7457 73.4353 67.3962 10.4406
