ITEM: TIMESTEP
10000
ITEM: NUMBER OF ATOMS
144
ITEM: BOX BOUNDS ss ss pp
-1.4803490598000003e-02 1.4801980349059801e+02
-1.1812892478400000e-02 1.1811681289247841e+02
0.0000000000000000e+00 1.1960000000000001e+01
ITEM: ATOMS id x y z
8747 77.68 50.4335 2.71629
8247 77.6559 50.569 0.155785
8249 80.5044 50.5895 0.291645
8749 80.5301 50.4572 2.88757
8751 83.4994 50.5464 2.77043
8251 83.434 50.6461 0.401234
8246 76.328 52.2784 1.58272
8248 79.134 52.2348 1.5805
8271 76.2696 55.135 1.83782
8272 77.7521 54.0145 0.176098
8273 79.138 55.2422 1.8049
8772 77.6968 53.6862 3.30191
8250 81.9322 52.3295 1.60442
8274 80.4859 53.8671 0.0982355
8275 82.0225 55.3224 1.73308
8774 80.618 53.6379 3.26227
8276 83.3386 54.0531 0.10346
8776 83.3134 53.7659 3.29742
8297 77.5936 56.3639 0.167656
8296 76.25 58.1845 1.44965
8298 79.0403 58.0966 1.45297
8797 77.5977 56.9067 3.12091
8299 80.4788 56.4664 0.0408987
8300 82.0029 58.1489 1.42273
8799 80.4622 56.8488 3.19407
8801 83.3809 57.0839 3.14225
9821 76.2221 61.0931 1.58916
9823 79.1481 60.9842 1.56291
10322 77.7041 59.5712 3.06834
9825 81.9268 61.0099 1.62516
10324 80.5188 59.5264 3.15661
10326 83.4124 59.6639 3.03201
9847 77.7641 62.7911 0.41596
10347 77.6509 62.8056 2.88912
9846 76.162 64.501 1.70425
9848 79.0519 64.5802 1.70319
10372 77.4938 65.914 3.41064
10349 80.4907 62.7884 2.93667
9849 80.6264 62.9415 0.35014
9850 81.9048 64.6391 1.59608
9851 83.4347 62.8178 0.298991
10351 83.4123 62.6893 2.87423
10376 83.3355 65.9725 3.40123
9872 77.6748 66.1382 0.109027
9871 76.1676 67.397 1.79943
9873 79.039 67.5083 1.90585
9874 80.3831 66.1794 0.213451
9875 81.8692 67.504 1.89538
10374 80.5267 66.0032 3.36916
9876 83.443 66.177 0.261058
9247 77.6826 50.2604 5.83161
8746 76.2336 51.8956 4.53645
9246 76.3163 51.9617 7.37326
9248 79.1119 52.0113 7.36658
9249 80.5798 50.3631 5.93946
8748 79.1773 51.8313 4.43288
8750 81.9457 51.8858 4.48352
9251 83.3614 50.4136 5.96073
9272 77.7679 53.5062 5.7865
8771 76.271 55.4809 4.71271
8773 79.1195 55.3461 4.71949
9271 76.2744 54.8575 7.5366
9273 79.12 54.9906 7.48127
9274 80.5588 53.5025 5.77568
8775 81.9376 55.4004 4.56698
9250 81.9133 52.1299 7.35058
9275 81.9251 55.0263 7.39895
9276 83.4495 53.6356 5.7998
8796 76.3003 58.479 4.8229
8798 79.134 58.3151 4.68102
9296 76.219 58.4559 7.79255
9297 77.7207 56.8897 6.32468
9298 79.0347 58.4482 7.62576
8800 81.9903 58.3325 4.85206
9299 80.3767 56.8465 6.25944
9300 81.9231 58.4539 7.57567
9301 83.3874 56.7443 6.25375
10321 76.2376 61.2646 4.54607
10323 79.0524 61.2994 4.38878
10821 76.2221 61.2523 7.7003
10822 77.6686 59.9622 6.18831
10325 81.9863 61.2702 4.47183
10823 79.2188 61.363 7.8057
10824 80.5337 60.0138 6.13406
10825 82.0331 61.3201 7.87421
10826 83.3243 60.0404 6.10792
10346 76.1728 64.1546 4.61387
10348 79.1081 64.2148 4.47415
10847 77.7124 62.6468 6.1144
10846 76.2525 64.2136 7.43964
10872 77.6352 65.7577 5.99815
10350 81.9104 64.1585 4.54214
10849 80.5571 62.5883 5.97233
10874 80.6751 65.8263 5.94077
10848 79.1742 64.2474 7.40711
10850 81.9907 64.2063 7.42358
10876 83.5006 65.787 5.88668
10851 83.3857 62.5491 6.02207
10371 76.2296 67.4925 4.70578
10373 79.1067 67.5459 4.83272
10871 76.2301 67.0674 7.6844
10873 79.0705 67.2044 7.59672
10375 81.9668 67.5508 4.76864
10875 82.0366 67.1254 7.63424
9595 77.6498 50.7975 9.06643
9570 79.031 52.0858 10.7321
9545 80.5493 50.8969 9.12583
9495 83.3577 50.8671 9.01786
9620 76.2803 52.1284 10.6707
8995 77.6774 53.3946 9.03618
9020 76.2492 55.0164 10.4363
8970 79.095 55.163 10.3302
8945 80.411 53.4892 9.01898
9520 81.9067 52.3354 10.6525
8920 82.0085 55.1039 10.2223
8895 83.2263 53.4447 8.91444
8395 77.5883 56.4366 8.77143
8420 76.2158 57.9623 10.5588
8370 78.9824 58.0165 10.5741
8345 80.4339 56.736 8.6958
8320 81.9699 57.9945 10.4487
8295 83.1952 56.6864 8.69304
8301 83.3242 56.5901 11.9591
11321 76.1627 61.4543 10.665
11322 77.7461 59.8311 9.33851
9822 77.6636 59.7457 11.8492
11323 79.0967 61.4531 10.6029
11324 80.4296 59.7215 9.30651
9824 80.3864 59.5869 11.8439
11325 81.945 61.4193 10.7838
9826 83.3911 59.6336 11.7738
11326 83.4165 59.7131 9.2304
11347 77.6044 62.9104 9.08329
11346 76.1822 64.3752 10.871
11372 77.6575 65.5171 9.1435
11348 79.0468 64.3433 10.902
11349 80.5238 62.9515 9.30036
11374 80.5011 65.5721 9.15059
11350 81.9294 64.4657 10.7899
11351 83.3796 63.0555 9.13638
11376 83.4001 65.4982 9.09809
11371 76.2213 67.3496 10.5291
11373 79.1108 67.4381 10.3615
11375 81.9127 67.3417 10.5107
