ITEM: TIMESTEP
10000
ITEM: NUMBER OF ATOMS
167
ITEM: BOX BOUNDS ss ss pp
-1.4803490598000003e-02 1.4801980349059801e+02
-1.1812892478400000e-02 1.1811681289247841e+02
0.0000000000000000e+00 1.1960000000000001e+01
ITEM: ATOMS id x y z
8753 86.1605 50.599 2.76526
8253 86.137 50.629 0.173596
8255 89.0776 50.8125 0.274848
8755 89.1777 50.6114 2.86512
8257 92.0555 50.8292 0.296124
8757 91.987 50.687 2.86165
8252 84.7783 52.4396 1.56433
8277 84.8176 55.317 1.66042
8254 87.7352 52.3878 1.61789
8280 89.0771 53.8931 0.118412
8278 86.2854 53.9578 0.0604783
8279 87.7278 55.3609 1.81212
8778 86.3252 53.8562 3.27112
8780 89.0364 53.8205 3.22142
8256 90.6022 52.4398 1.70496
8281 90.6065 55.3055 1.70012
8282 92.1756 54.0141 0.201201
8782 92.0821 53.8152 3.28645
8258 93.4334 52.425 1.61028
8283 93.4319 55.3767 1.86464
8302 84.8143 58.2018 1.32669
8304 87.7077 58.2204 1.32779
8305 89.2871 56.5581 0.0548995
8803 86.2151 57.0033 3.05472
8805 89.303 57.0417 3.17794
8306 90.6405 58.2671 1.42115
8307 92.0426 56.5741 0.041348
8807 92.1594 56.8888 3.18791
8308 93.473 58.2116 1.38426
9827 84.8315 61.0522 1.54789
9829 87.6997 61.1195 1.47818
10330 89.1181 59.5888 2.96525
10328 86.2487 59.4549 3.05713
9831 90.5216 61.3348 1.58526
10332 92.0188 59.5653 3.05328
9833 93.4869 61.1175 1.62733
9852 84.8182 64.5477 1.79712
10353 86.2097 62.7875 2.91911
9853 86.2406 62.892 0.377698
9855 89.0294 63.0073 0.316862
10355 88.9671 62.7693 2.86936
9878 86.2945 65.9858 0.249818
9854 87.6622 64.6133 1.78035
10380 89.2345 65.9571 3.26836
9857 92.0525 63.0044 0.142966
9856 90.5884 64.4905 1.71896
10357 92.052 62.8376 2.99337
10382 92.1628 65.7483 3.40123
9858 93.4682 64.5305 1.74494
9877 84.8808 67.4138 1.85967
9880 89.1868 66.0465 0.252642
9879 87.7885 67.497 1.83321
10378 86.3263 66.0827 3.40815
9882 92.1216 66.0443 0.172146
9881 90.6392 67.4625 1.80511
9883 93.4818 67.4421 1.86811
8752 84.8568 51.9739 4.43319
9252 84.8608 51.9654 7.28313
9253 86.3106 50.3629 5.88227
9255 89.1791 50.4814 5.93529
8754 87.6745 51.9068 4.3479
9257 92.0204 50.5393 5.94668
8756 90.5225 52.0276 4.50215
8758 93.4304 51.9933 4.47814
8777 84.7399 55.5489 4.5809
9277 84.8963 54.9579 7.42203
9278 86.2118 53.6685 5.6981
9280 89.017 53.6262 5.88704
8779 87.702 55.4492 4.61279
9254 87.706 52.1559 7.27463
9279 87.65 55.0091 7.48826
9282 92.0262 53.6394 5.8431
8781 90.5328 55.4834 4.55941
9256 90.5674 52.1518 7.42328
9281 90.5307 55.0391 7.48193
8783 93.4733 55.4227 4.67139
9258 93.3747 52.2213 7.30176
9283 93.4323 55.0579 7.54202
8802 84.8668 58.4412 4.83553
9302 84.8181 58.3902 7.52107
8804 87.6955 58.2977 4.71845
9303 86.2606 56.7496 6.30802
9304 87.745 58.5605 7.65727
9305 89.1421 56.8322 6.29023
8806 90.5733 58.3845 4.75122
9306 90.6727 58.5848 7.68355
9307 92.0046 56.9256 6.35791
8808 93.4665 58.3213 4.7332
9308 93.4221 58.4639 7.62952
10327 84.8111 61.1271 4.37819
10827 84.8909 61.3104 7.79324
10329 87.6436 61.2467 4.3178
10830 88.9718 60.0911 5.96749
10828 86.2652 59.998 6.09208
10829 87.7313 61.4361 7.70851
10331 90.5735 61.2514 4.38492
10832 92.0222 59.9817 5.98913
10831 90.6154 61.3296 7.67928
10333 93.4839 61.2801 4.44201
10833 93.5007 61.2672 7.78001
10352 84.8136 64.1893 4.64456
10852 84.8388 64.2442 7.40563
10354 87.6084 64.1894 4.55767
10880 89.2744 65.8031 5.81507
10853 86.3107 62.5927 6.07866
10855 89.1316 62.6557 6.02281
10878 86.1971 65.8875 6.03649
10854 87.7377 64.3562 7.33781
10356 90.5188 64.1174 4.58308
10882 91.9655 65.8416 5.95266
10857 92.0432 62.6319 5.98178
10856 90.5337 64.2178 7.50266
10358 93.5032 64.0978 4.59897
10858 93.4513 64.3167 7.38183
10377 84.8831 67.6131 4.69611
10877 84.8368 67.2803 7.57688
10379 87.8513 67.5638 4.72034
10879 87.7827 67.1813 7.71677
10381 90.6132 67.6558 4.73082
10881 90.6422 67.0805 7.53528
10383 93.4384 67.5344 4.66003
10883 93.5764 67.24 7.54921
9445 86.2284 50.8081 9.08241
9395 89.0006 50.9513 8.98383
9345 92.0243 51.0022 9.11028
9470 84.7586 52.265 10.8234
8870 84.7324 55.1855 10.2601
8845 86.2258 53.4969 9.11934
9420 87.676 52.2277 10.6929
8795 89.1302 53.5031 8.99639
8820 87.6706 55.1871 10.2566
8745 92.0159 53.4969 8.97402
9370 90.5616 52.2728 10.8349
8770 90.5809 55.1547 10.362
9320 93.4765 52.3172 10.757
8720 93.5436 55.2607 10.3313
8270 84.9203 58.0939 10.4241
8245 86.3238 56.697 8.81051
8195 89.0941 56.7252 8.73121
8303 86.4258 56.5656 11.9294
8220 87.7821 58.1174 10.4858
8145 91.9937 56.6333 8.90075
8170 90.6073 58.0496 10.4739
8120 93.3929 58.0676 10.4177
11327 84.8864 61.542 10.6294
9828 86.2269 59.7306 11.8191
11328 86.1708 59.788 9.38699
11330 89.1182 59.9685 9.29945
9830 89.2374 59.8178 11.8377
11329 87.7275 61.5667 10.6296
9832 92.1273 59.7824 11.7611
11332 92.032 59.9086 9.31294
11331 90.623 61.5583 10.6269
11333 93.4263 61.6136 10.6242
11352 84.826 64.3546 10.7901
11353 86.3432 63.1238 8.99383
11355 89.2337 62.96 9.08881
11378 86.1271 65.6183 9.01856
11380 89.1351 65.6433 9.08492
11354 87.6486 64.479 10.7536
11357 92.1249 62.951 9.13507
11382 92.0605 65.6786 9.06773
11356 90.547 64.4703 10.7592
11358 93.4197 64.3843 10.7956
11377 84.8284 67.2421 10.4088
11379 87.713 67.2685 10.5174
11381 90.6364 67.365 10.4434
