 # Bcc CoTi alloy oriented X=[100] Y=[010] Z=[001].
  
       16000  atoms
           2  atom types
 
      0.000000000000     149.500000000000  xlo xhi
      0.000000000000     119.600000000000  ylo yhi
      0.000000000000      11.960000000000  zlo zhi
 
Masses
 
            1   58.93319500             # Co
            2   47.86700000             # Ti
 
Atoms # atomic
 
         1    1        0.000000000000       0.000000000000       0.000000000000
         2    2        1.495000000000       1.495000000000       1.495000000000
         3    1        2.990000000000       0.000000000000       0.000000000000
         4    2        4.485000000000       1.495000000000       1.495000000000
         5    1        5.980000000000       0.000000000000       0.000000000000
         6    2        7.475000000000       1.495000000000       1.495000000000
         7    1        8.970000000000       0.000000000000       0.000000000000
         8    2       10.465000000000       1.495000000000       1.495000000000
         9    1       11.960000000000       0.000000000000       0.000000000000
        10    2       13.455000000000       1.495000000000       1.495000000000
        11    1       14.950000000000       0.000000000000       0.000000000000
        12    2       16.445000000000       1.495000000000       1.495000000000
        13    1       17.940000000000       0.000000000000       0.000000000000
        14    2       19.435000000000       1.495000000000       1.495000000000
        15    1       20.930000000000       0.000000000000       0.000000000000
        16    2       22.425000000000       1.495000000000       1.495000000000
        17    1       23.920000000000       0.000000000000       0.000000000000
        18    2       25.415000000000       1.495000000000       1.495000000000
        19    1       26.910000000000       0.000000000000       0.000000000000
        20    2       28.405000000000       1.495000000000       1.495000000000
        21    1       29.900000000000       0.000000000000       0.000000000000
        22    2       31.395000000000       1.495000000000       1.495000000000
        23    1       32.890000000000       0.000000000000       0.000000000000
        24    2       34.385000000000       1.495000000000       1.495000000000
        25    1       35.880000000000       0.000000000000       0.000000000000
        26    2       37.375000000000       1.495000000000       1.495000000000
        27    1       38.870000000000       0.000000000000       0.000000000000
        28    2       40.365000000000       1.495000000000       1.495000000000
        29    1       41.860000000000       0.000000000000       0.000000000000
        30    2       43.355000000000       1.495000000000       1.495000000000
        31    1       44.850000000000       0.000000000000       0.000000000000
        32    2       46.345000000000       1.495000000000       1.495000000000
        33    1       47.840000000000       0.000000000000       0.000000000000
        34    2       49.335000000000       1.495000000000       1.495000000000
        35    1       50.830000000000       0.000000000000       0.000000000000
        36    2       52.325000000000       1.495000000000       1.495000000000
        37    1       53.820000000000       0.000000000000       0.000000000000
        38    2       55.315000000000       1.495000000000       1.495000000000
        39    1       56.810000000000       0.000000000000       0.000000000000
        40    2       58.305000000000       1.495000000000       1.495000000000
        41    1       59.800000000000       0.000000000000       0.000000000000
        42    2       61.295000000000       1.495000000000       1.495000000000
        43    1       62.790000000000       0.000000000000       0.000000000000
        44    2       64.285000000000       1.495000000000       1.495000000000
        45    1       65.780000000000       0.000000000000       0.000000000000
        46    2       67.275000000000       1.495000000000       1.495000000000
        47    1       68.770000000000       0.000000000000       0.000000000000
        48    2       70.265000000000       1.495000000000       1.495000000000
        49    1       71.760000000000       0.000000000000       0.000000000000
        50    2       73.255000000000       1.495000000000       1.495000000000
        51    1       74.750000000000       0.000000000000       0.000000000000
        52    2       76.245000000000       1.495000000000       1.495000000000
        53    1       77.740000000000       0.000000000000       0.000000000000
        54    2       79.235000000000       1.495000000000       1.495000000000
        55    1       80.730000000000       0.000000000000       0.000000000000
        56    2       82.225000000000       1.495000000000       1.495000000000
        57    1       83.720000000000       0.000000000000       0.000000000000
        58    2       85.215000000000       1.495000000000       1.495000000000
        59    1       86.710000000000       0.000000000000       0.000000000000
        60    2       88.205000000000       1.495000000000       1.495000000000
        61    1       89.700000000000       0.000000000000       0.000000000000
        62    2       91.195000000000       1.495000000000       1.495000000000
        63    1       92.690000000000       0.000000000000       0.000000000000
        64    2       94.185000000000       1.495000000000       1.495000000000
        65    1       95.680000000000       0.000000000000       0.000000000000
        66    2       97.175000000000       1.495000000000       1.495000000000
        67    1       98.670000000000       0.000000000000       0.000000000000
        68    2      100.165000000000       1.495000000000       1.495000000000
        69    1      101.660000000000       0.000000000000       0.000000000000
        70    2      103.155000000000       1.495000000000       1.495000000000
        71    1      104.650000000000       0.000000000000       0.000000000000
        72    2      106.145000000000       1.495000000000       1.495000000000
        73    1      107.640000000000       0.000000000000       0.000000000000
        74    2      109.135000000000       1.495000000000       1.495000000000
        75    1      110.630000000000       0.000000000000       0.000000000000
        76    2      112.125000000000       1.495000000000       1.495000000000
        77    1      113.620000000000       0.000000000000       0.000000000000
        78    2      115.115000000000       1.495000000000       1.495000000000
        79    1      116.610000000000       0.000000000000       0.000000000000
        80    2      118.105000000000       1.495000000000       1.495000000000
        81    1      119.600000000000       0.000000000000       0.000000000000
        82    2      121.095000000000       1.495000000000       1.495000000000
        83    1      122.590000000000       0.000000000000       0.000000000000
        84    2      124.085000000000       1.495000000000       1.495000000000
        85    1      125.580000000000       0.000000000000       0.000000000000
        86    2      127.075000000000       1.495000000000       1.495000000000
        87    1      128.570000000000       0.000000000000       0.000000000000
        88    2      130.065000000000       1.495000000000       1.495000000000
        89    1      131.560000000000       0.000000000000       0.000000000000
        90    2      133.055000000000       1.495000000000       1.495000000000
        91    1      134.550000000000       0.000000000000       0.000000000000
        92    2      136.045000000000       1.495000000000       1.495000000000
        93    1      137.540000000000       0.000000000000       0.000000000000
        94    2      139.035000000000       1.495000000000       1.495000000000
        95    1      140.530000000000       0.000000000000       0.000000000000
        96    2      142.025000000000       1.495000000000       1.495000000000
        97    1      143.520000000000       0.000000000000       0.000000000000
        98    2      145.015000000000       1.495000000000       1.495000000000
        99    1      146.510000000000       0.000000000000       0.000000000000
       100    2      148.005000000000       1.495000000000       1.495000000000
       101    1        0.000000000000       2.990000000000       0.000000000000
       102    2        1.495000000000       4.485000000000       1.495000000000
       103    1        2.990000000000       2.990000000000       0.000000000000
       104    2        4.485000000000       4.485000000000       1.495000000000
       105    1        5.980000000000       2.990000000000       0.000000000000
       106    2        7.475000000000       4.485000000000       1.495000000000
       107    1        8.970000000000       2.990000000000       0.000000000000
       108    2       10.465000000000       4.485000000000       1.495000000000
       109    1       11.960000000000       2.990000000000       0.000000000000
       110    2       13.455000000000       4.485000000000       1.495000000000
       111    1       14.950000000000       2.990000000000       0.000000000000
       112    2       16.445000000000       4.485000000000       1.495000000000
       113    1       17.940000000000       2.990000000000       0.000000000000
       114    2       19.435000000000       4.485000000000       1.495000000000
       115    1       20.930000000000       2.990000000000       0.000000000000
       116    2       22.425000000000       4.485000000000       1.495000000000
       117    1       23.920000000000       2.990000000000       0.000000000000
       118    2       25.415000000000       4.485000000000       1.495000000000
       119    1       26.910000000000       2.990000000000       0.000000000000
       120    2       28.405000000000       4.485000000000       1.495000000000
       121    1       29.900000000000       2.990000000000       0.000000000000
       122    2       31.395000000000       4.485000000000       1.495000000000
       123    1       32.890000000000       2.990000000000       0.000000000000
       124    2       34.385000000000       4.485000000000       1.495000000000
       125    1       35.880000000000       2.990000000000       0.000000000000
       126    2       37.375000000000       4.485000000000       1.495000000000
       127    1       38.870000000000       2.990000000000       0.000000000000
       128    2       40.365000000000       4.485000000000       1.495000000000
       129    1       41.860000000000       2.990000000000       0.000000000000
       130    2       43.355000000000       4.485000000000       1.495000000000
       131    1       44.850000000000       2.990000000000       0.000000000000
       132    2       46.345000000000       4.485000000000       1.495000000000
       133    1       47.840000000000       2.990000000000       0.000000000000
       134    2       49.335000000000       4.485000000000       1.495000000000
       135    1       50.830000000000       2.990000000000       0.000000000000
       136    2       52.325000000000       4.485000000000       1.495000000000
       137    1       53.820000000000       2.990000000000       0.000000000000
       138    2       55.315000000000       4.485000000000       1.495000000000
       139    1       56.810000000000       2.990000000000       0.000000000000
       140    2       58.305000000000       4.485000000000       1.495000000000
       141    1       59.800000000000       2.990000000000       0.000000000000
       142    2       61.295000000000       4.485000000000       1.495000000000
       143    1       62.790000000000       2.990000000000       0.000000000000
       144    2       64.285000000000       4.485000000000       1.495000000000
       145    1       65.780000000000       2.990000000000       0.000000000000
       146    2       67.275000000000       4.485000000000       1.495000000000
       147    1       68.770000000000       2.990000000000       0.000000000000
       148    2       70.265000000000       4.485000000000       1.495000000000
       149    1       71.760000000000       2.990000000000       0.000000000000
       150    2       73.255000000000       4.485000000000       1.495000000000
       151    1       74.750000000000       2.990000000000       0.000000000000
       152    2       76.245000000000       4.485000000000       1.495000000000
       153    1       77.740000000000       2.990000000000       0.000000000000
       154    2       79.235000000000       4.485000000000       1.495000000000
       155    1       80.730000000000       2.990000000000       0.000000000000
       156    2       82.225000000000       4.485000000000       1.495000000000
       157    1       83.720000000000       2.990000000000       0.000000000000
       158    2       85.215000000000       4.485000000000       1.495000000000
       159    1       86.710000000000       2.990000000000       0.000000000000
       160    2       88.205000000000       4.485000000000       1.495000000000
       161    1       89.700000000000       2.990000000000       0.000000000000
       162    2       91.195000000000       4.485000000000       1.495000000000
       163    1       92.690000000000       2.990000000000       0.000000000000
       164    2       94.185000000000       4.485000000000       1.495000000000
       165    1       95.680000000000       2.990000000000       0.000000000000
       166    2       97.175000000000       4.485000000000       1.495000000000
       167    1       98.670000000000       2.990000000000       0.000000000000
       168    2      100.165000000000       4.485000000000       1.495000000000
       169    1      101.660000000000       2.990000000000       0.000000000000
       170    2      103.155000000000       4.485000000000       1.495000000000
       171    1      104.650000000000       2.990000000000       0.000000000000
       172    2      106.145000000000       4.485000000000       1.495000000000
       173    1      107.640000000000       2.990000000000       0.000000000000
       174    2      109.135000000000       4.485000000000       1.495000000000
       175    1      110.630000000000       2.990000000000       0.000000000000
       176    2      112.125000000000       4.485000000000       1.495000000000
       177    1      113.620000000000       2.990000000000       0.000000000000
       178    2      115.115000000000       4.485000000000       1.495000000000
       179    1      116.610000000000       2.990000000000       0.000000000000
       180    2      118.105000000000       4.485000000000       1.495000000000
       181    1      119.600000000000       2.990000000000       0.000000000000
       182    2      121.095000000000       4.485000000000       1.495000000000
       183    1      122.590000000000       2.990000000000       0.000000000000
       184    2      124.085000000000       4.485000000000       1.495000000000
       185    1      125.580000000000       2.990000000000       0.000000000000
       186    2      127.075000000000       4.485000000000       1.495000000000
       187    1      128.570000000000       2.990000000000       0.000000000000
       188    2      130.065000000000       4.485000000000       1.495000000000
       189    1      131.560000000000       2.990000000000       0.000000000000
       190    2      133.055000000000       4.485000000000       1.495000000000
       191    1      134.550000000000       2.990000000000       0.000000000000
       192    2      136.045000000000       4.485000000000       1.495000000000
       193    1      137.540000000000       2.990000000000       0.000000000000
       194    2      139.035000000000       4.485000000000       1.495000000000
       195    1      140.530000000000       2.990000000000       0.000000000000
       196    2      142.025000000000       4.485000000000       1.495000000000
       197    1      143.520000000000       2.990000000000       0.000000000000
       198    2      145.015000000000       4.485000000000       1.495000000000
       199    1      146.510000000000       2.990000000000       0.000000000000
       200    2      148.005000000000       4.485000000000       1.495000000000
       201    1        0.000000000000       5.980000000000       0.000000000000
       202    2        1.495000000000       7.475000000000       1.495000000000
       203    1        2.990000000000       5.980000000000       0.000000000000
       204    2        4.485000000000       7.475000000000       1.495000000000
       205    1        5.980000000000       5.980000000000       0.000000000000
       206    2        7.475000000000       7.475000000000       1.495000000000
       207    1        8.970000000000       5.980000000000       0.000000000000
       208    2       10.465000000000       7.475000000000       1.495000000000
       209    1       11.960000000000       5.980000000000       0.000000000000
       210    2       13.455000000000       7.475000000000       1.495000000000
       211    1       14.950000000000       5.980000000000       0.000000000000
       212    2       16.445000000000       7.475000000000       1.495000000000
       213    1       17.940000000000       5.980000000000       0.000000000000
       214    2       19.435000000000       7.475000000000       1.495000000000
       215    1       20.930000000000       5.980000000000       0.000000000000
       216    2       22.425000000000       7.475000000000       1.495000000000
       217    1       23.920000000000       5.980000000000       0.000000000000
       218    2       25.415000000000       7.475000000000       1.495000000000
       219    1       26.910000000000       5.980000000000       0.000000000000
       220    2       28.405000000000       7.475000000000       1.495000000000
       221    1       29.900000000000       5.980000000000       0.000000000000
       222    2       31.395000000000       7.475000000000       1.495000000000
       223    1       32.890000000000       5.980000000000       0.000000000000
       224    2       34.385000000000       7.475000000000       1.495000000000
       225    1       35.880000000000       5.980000000000       0.000000000000
       226    2       37.375000000000       7.475000000000       1.495000000000
       227    1       38.870000000000       5.980000000000       0.000000000000
       228    2       40.365000000000       7.475000000000       1.495000000000
       229    1       41.860000000000       5.980000000000       0.000000000000
       230    2       43.355000000000       7.475000000000       1.495000000000
       231    1       44.850000000000       5.980000000000       0.000000000000
       232    2       46.345000000000       7.475000000000       1.495000000000
       233    1       47.840000000000       5.980000000000       0.000000000000
       234    2       49.335000000000       7.475000000000       1.495000000000
       235    1       50.830000000000       5.980000000000       0.000000000000
       236    2       52.325000000000       7.475000000000       1.495000000000
       237    1       53.820000000000       5.980000000000       0.000000000000
       238    2       55.315000000000       7.475000000000       1.495000000000
       239    1       56.810000000000       5.980000000000       0.000000000000
       240    2       58.305000000000       7.475000000000       1.495000000000
       241    1       59.800000000000       5.980000000000       0.000000000000
       242    2       61.295000000000       7.475000000000       1.495000000000
       243    1       62.790000000000       5.980000000000       0.000000000000
       244    2       64.285000000000       7.475000000000       1.495000000000
       245    1       65.780000000000       5.980000000000       0.000000000000
       246    2       67.275000000000       7.475000000000       1.495000000000
       247    1       68.770000000000       5.980000000000       0.000000000000
       248    2       70.265000000000       7.475000000000       1.495000000000
       249    1       71.760000000000       5.980000000000       0.000000000000
       250    2       73.255000000000       7.475000000000       1.495000000000
       251    1       74.750000000000       5.980000000000       0.000000000000
       252    2       76.245000000000       7.475000000000       1.495000000000
       253    1       77.740000000000       5.980000000000       0.000000000000
       254    2       79.235000000000       7.475000000000       1.495000000000
       255    1       80.730000000000       5.980000000000       0.000000000000
       256    2       82.225000000000       7.475000000000       1.495000000000
       257    1       83.720000000000       5.980000000000       0.000000000000
       258    2       85.215000000000       7.475000000000       1.495000000000
       259    1       86.710000000000       5.980000000000       0.000000000000
       260    2       88.205000000000       7.475000000000       1.495000000000
       261    1       89.700000000000       5.980000000000       0.000000000000
       262    2       91.195000000000       7.475000000000       1.495000000000
       263    1       92.690000000000       5.980000000000       0.000000000000
       264    2       94.185000000000       7.475000000000       1.495000000000
       265    1       95.680000000000       5.980000000000       0.000000000000
       266    2       97.175000000000       7.475000000000       1.495000000000
       267    1       98.670000000000       5.980000000000       0.000000000000
       268    2      100.165000000000       7.475000000000       1.495000000000
       269    1      101.660000000000       5.980000000000       0.000000000000
       270    2      103.155000000000       7.475000000000       1.495000000000
       271    1      104.650000000000       5.980000000000       0.000000000000
       272    2      106.145000000000       7.475000000000       1.495000000000
       273    1      107.640000000000       5.980000000000       0.000000000000
       274    2      109.135000000000       7.475000000000       1.495000000000
       275    1      110.630000000000       5.980000000000       0.000000000000
       276    2      112.125000000000       7.475000000000       1.495000000000
       277    1      113.620000000000       5.980000000000       0.000000000000
       278    2      115.115000000000       7.475000000000       1.495000000000
       279    1      116.610000000000       5.980000000000       0.000000000000
       280    2      118.105000000000       7.475000000000       1.495000000000
       281    1      119.600000000000       5.980000000000       0.000000000000
       282    2      121.095000000000       7.475000000000       1.495000000000
       283    1      122.590000000000       5.980000000000       0.000000000000
       284    2      124.085000000000       7.475000000000       1.495000000000
       285    1      125.580000000000       5.980000000000       0.000000000000
       286    2      127.075000000000       7.475000000000       1.495000000000
       287    1      128.570000000000       5.980000000000       0.000000000000
       288    2      130.065000000000       7.475000000000       1.495000000000
       289    1      131.560000000000       5.980000000000       0.000000000000
       290    2      133.055000000000       7.475000000000       1.495000000000
       291    1      134.550000000000       5.980000000000       0.000000000000
       292    2      136.045000000000       7.475000000000       1.495000000000
       293    1      137.540000000000       5.980000000000       0.000000000000
       294    2      139.035000000000       7.475000000000       1.495000000000
       295    1      140.530000000000       5.980000000000       0.000000000000
       296    2      142.025000000000       7.475000000000       1.495000000000
       297    1      143.520000000000       5.980000000000       0.000000000000
       298    2      145.015000000000       7.475000000000       1.495000000000
       299    1      146.510000000000       5.980000000000       0.000000000000
       300    2      148.005000000000       7.475000000000       1.495000000000
       301    1        0.000000000000       8.970000000000       0.000000000000
       302    2        1.495000000000      10.465000000000       1.495000000000
       303    1        2.990000000000       8.970000000000       0.000000000000
       304    2        4.485000000000      10.465000000000       1.495000000000
       305    1        5.980000000000       8.970000000000       0.000000000000
       306    2        7.475000000000      10.465000000000       1.495000000000
       307    1        8.970000000000       8.970000000000       0.000000000000
       308    2       10.465000000000      10.465000000000       1.495000000000
       309    1       11.960000000000       8.970000000000       0.000000000000
       310    2       13.455000000000      10.465000000000       1.495000000000
       311    1       14.950000000000       8.970000000000       0.000000000000
       312    2       16.445000000000      10.465000000000       1.495000000000
       313    1       17.940000000000       8.970000000000       0.000000000000
       314    2       19.435000000000      10.465000000000       1.495000000000
       315    1       20.930000000000       8.970000000000       0.000000000000
       316    2       22.425000000000      10.465000000000       1.495000000000
       317    1       23.920000000000       8.970000000000       0.000000000000
       318    2       25.415000000000      10.465000000000       1.495000000000
       319    1       26.910000000000       8.970000000000       0.000000000000
       320    2       28.405000000000      10.465000000000       1.495000000000
       321    1       29.900000000000       8.970000000000       0.000000000000
       322    2       31.395000000000      10.465000000000       1.495000000000
       323    1       32.890000000000       8.970000000000       0.000000000000
       324    2       34.385000000000      10.465000000000       1.495000000000
       325    1       35.880000000000       8.970000000000       0.000000000000
       326    2       37.375000000000      10.465000000000       1.495000000000
       327    1       38.870000000000       8.970000000000       0.000000000000
       328    2       40.365000000000      10.465000000000       1.495000000000
       329    1       41.860000000000       8.970000000000       0.000000000000
       330    2       43.355000000000      10.465000000000       1.495000000000
       331    1       44.850000000000       8.970000000000       0.000000000000
       332    2       46.345000000000      10.465000000000       1.495000000000
       333    1       47.840000000000       8.970000000000       0.000000000000
       334    2       49.335000000000      10.465000000000       1.495000000000
       335    1       50.830000000000       8.970000000000       0.000000000000
       336    2       52.325000000000      10.465000000000       1.495000000000
       337    1       53.820000000000       8.970000000000       0.000000000000
       338    2       55.315000000000      10.465000000000       1.495000000000
       339    1       56.810000000000       8.970000000000       0.000000000000
       340    2       58.305000000000      10.465000000000       1.495000000000
       341    1       59.800000000000       8.970000000000       0.000000000000
       342    2       61.295000000000      10.465000000000       1.495000000000
       343    1       62.790000000000       8.970000000000       0.000000000000
       344    2       64.285000000000      10.465000000000       1.495000000000
       345    1       65.780000000000       8.970000000000       0.000000000000
       346    2       67.275000000000      10.465000000000       1.495000000000
       347    1       68.770000000000       8.970000000000       0.000000000000
       348    2       70.265000000000      10.465000000000       1.495000000000
       349    1       71.760000000000       8.970000000000       0.000000000000
       350    2       73.255000000000      10.465000000000       1.495000000000
       351    1       74.750000000000       8.970000000000       0.000000000000
       352    2       76.245000000000      10.465000000000       1.495000000000
       353    1       77.740000000000       8.970000000000       0.000000000000
       354    2       79.235000000000      10.465000000000       1.495000000000
       355    1       80.730000000000       8.970000000000       0.000000000000
       356    2       82.225000000000      10.465000000000       1.495000000000
       357    1       83.720000000000       8.970000000000       0.000000000000
       358    2       85.215000000000      10.465000000000       1.495000000000
       359    1       86.710000000000       8.970000000000       0.000000000000
       360    2       88.205000000000      10.465000000000       1.495000000000
       361    1       89.700000000000       8.970000000000       0.000000000000
       362    2       91.195000000000      10.465000000000       1.495000000000
       363    1       92.690000000000       8.970000000000       0.000000000000
       364    2       94.185000000000      10.465000000000       1.495000000000
       365    1       95.680000000000       8.970000000000       0.000000000000